          57          54   1.00000000000000     
    1       2    0 1 1 1 0 0 0 1 0 0 1 1 1 1 1 0 1 0 1 1 1 1 1 0 0 0 1 1 0 1 1 1 0 1 0 1 0 1 1 0 1 1 0 1 0 1 0 1 1 1 1
    0       0    0 0 1 1 0 0 0 1 0 1 1 1 1 0 0 1 0 0 1 0 0 0 0 1 1 1 0 0 0 0 0 0 0 0 0 0 0 1 1 0 1 1 1 1 0 0 1 1 1 0 1
    0       1    1 1 0 0 1 1 0 0 1 1 1 1 1 0 1 1 0 1 0 1 1 0 0 1 1
    2       2    0 1 1 1 0 0 0 1 0 0 1 1 1 1 1 0 1 0 1 1 1 1 1 0 0 0 1 1 0 1 1 1 0 1 0 1 0 1 1 0 1 1 0 1 0 1 0 1 1 1 1
    0       0    0 0 1 1 0 0 0 1 0 1 1 1 1 0 0 1 0 0 1 0 0 0 0 1 1 1 0 0 0 0 0 0 0 0 0 0 0 1 1 0 1 1 1 1 0 0 1 1 1 0 1
    0       1    1 1 0 0 1 1 0 0 1 1 1 1 1 0 1 1 0 1 0 1 1 0 0 1 1
    3       2    0 1 1 1 0 0 0 1 0 0 1 1 1 1 1 0 1 0 1 1 1 1 1 0 0 0 1 1 0 1 1 1 0 1 0 1 0 1 1 0 1 1 0 1 0 1 0 1 1 1 1
    0       0    0 0 1 1 0 0 0 1 0 1 1 1 1 0 0 1 0 0 1 0 0 0 0 1 1 1 0 0 0 0 0 0 0 0 0 0 0 1 1 0 1 1 1 1 0 0 1 1 1 0 1
    0       1    1 1 0 0 1 1 0 0 1 1 1 1 1 0 1 1 0 1 0 1 1 0 0 1 1
    4       2    0 1 1 1 0 0 0 1 0 0 1 1 1 1 1 1 0 0 1 1 1 0 1 0 1 1 1 0 1 1 1 0 1 0 0 1 0 1 1 0 1 1 1 0 0 0 0 1 1 1 1
    0       0    0 1 0 1 0 0 1 1 0 1 1 0 0 0 0 0 1 0 1 0 0 1 0 0 1 1 0 0 0 0 0 0 0 0 1 0 0 1 1 1 0 1 1 1 0 0 1 1 1 0 1
    0       1    1 1 0 0 0 1 0 0 0 1 1 1 1 0 1 0 0 1 0 1 1 0 0 1 1
    5       2    0 1 1 1 0 0 0 1 0 0 1 1 1 1 1 0 0 0 1 1 1 0 1 0 0 1 1 0 0 1 1 0 1 1 0 1 0 1 1 0 1 1 0 0 1 1 0 1 1 1 1
    0       0    0 1 0 0 1 0 0 1 1 1 1 1 0 0 1 0 1 0 1 0 0 1 0 1 1 1 0 0 0 0 0 0 0 0 1 1 0 1 1 1 0 1 1 1 0 0 1 1 1 0 1
    0       1    1 1 0 0 1 1 1 1 1 0 1 1 1 0 1 0 0 1 0 1 1 0 0 1 1
    6       2    0 1 1 1 0 0 0 1 0 0 1 1 1 0 1 0 0 0 1 1 1 0 1 0 1 0 1 0 0 1 1 0 0 0 0 0 0 1 1 0 1 1 0 0 0 0 0 1 1 1 1
    0       0    0 1 0 0 1 0 1 1 0 1 1 1 0 0 0 0 1 0 0 0 0 1 0 1 1 1 0 0 0 0 0 1 0 1 1 0 0 1 1 0 1 1 1 1 0 0 1 1 1 1 1
    0       1    1 1 0 1 0 0 1 1 1 1 1 0 1 0 1 1 0 1 0 1 1 0 0 1 1
    7       2    0 1 1 1 0 0 0 1 0 0 1 1 1 0 1 0 0 0 1 1 1 0 1 0 1 0 1 0 0 1 1 0 0 0 0 0 0 1 1 0 1 1 0 0 0 0 0 1 1 1 1
    0       0    0 1 0 0 1 0 1 1 0 1 1 1 0 0 0 0 1 0 0 0 0 1 0 1 1 1 0 0 0 0 0 1 0 1 1 0 0 1 1 0 1 1 1 1 0 0 1 1 1 1 1
    0       1    1 1 0 1 0 0 1 1 1 1 1 0 1 0 1 1 0 1 0 1 1 0 0 1 1
    8       2    0 1 1 1 0 0 0 1 0 0 1 1 1 0 1 0 0 0 1 1 1 0 1 0 1 0 1 0 0 1 1 0 0 0 0 0 0 1 1 0 1 1 0 0 0 0 0 1 1 1 1
    0       0    0 1 0 0 1 0 1 1 0 1 1 1 0 0 0 0 1 0 0 0 0 1 0 1 1 1 0 0 0 0 0 1 0 1 1 0 0 1 1 0 1 1 1 1 0 0 1 1 1 1 1
    0       1    1 1 0 1 0 0 1 1 1 1 1 0 1 0 1 1 0 1 0 1 1 0 0 1 1
    9       2    0 1 1 1 0 0 0 1 0 0 1 1 1 0 1 0 0 0 1 1 1 0 1 0 1 0 1 0 0 1 1 0 0 0 0 0 0 1 1 0 1 1 0 0 0 0 0 1 1 1 1
    0       0    0 1 0 0 1 0 1 1 0 1 1 1 0 0 0 0 1 0 0 0 0 1 0 1 1 1 0 0 0 0 0 1 0 1 1 0 0 1 1 0 1 1 1 1 0 0 1 1 1 1 1
    0       1    1 1 0 1 0 0 1 1 1 1 1 0 1 0 1 1 0 1 0 1 1 0 0 1 1
   10       2    0 1 1 1 0 0 0 1 0 0 1 1 1 0 1 0 0 0 1 1 1 0 1 0 1 0 1 0 0 1 1 0 0 0 0 0 0 1 1 0 1 1 0 0 0 0 0 1 1 1 1
    0       0    0 1 0 0 1 0 1 1 0 1 1 1 0 0 0 0 1 0 0 0 0 1 0 1 1 1 0 0 0 0 0 1 0 1 1 0 0 1 1 0 1 1 1 1 0 0 1 1 1 1 1
    0       1    1 1 0 1 0 0 1 1 1 1 1 0 1 0 1 1 0 1 0 1 1 0 0 1 1
   11       2    0 1 1 1 0 0 0 1 0 0 1 1 1 0 1 0 0 0 1 1 1 0 1 0 1 0 1 0 0 1 1 0 0 0 0 0 0 1 1 0 1 1 0 0 0 0 0 1 1 1 1
    0       0    0 1 0 0 1 0 1 1 0 1 1 1 0 0 0 0 1 0 0 0 0 1 0 1 1 1 0 0 0 0 0 1 0 1 1 0 0 1 1 0 1 1 1 1 0 0 1 1 1 1 1
    0       1    1 1 0 1 0 0 1 1 1 1 1 0 1 0 1 1 0 1 0 1 1 0 0 1 1
   12       2    0 1 1 1 0 0 0 1 0 0 1 1 1 0 1 0 0 0 1 1 1 0 1 0 1 0 1 0 0 1 1 0 0 0 0 0 0 1 1 0 1 1 0 0 0 0 0 1 1 1 1
    0       0    0 1 0 0 1 0 1 1 0 1 1 1 0 0 0 0 1 0 0 0 0 1 0 1 1 1 0 0 0 0 0 1 0 1 1 0 0 1 1 0 1 1 1 1 0 0 1 1 1 1 1
    0       1    1 1 0 1 0 0 1 1 1 1 1 0 1 0 1 1 0 1 0 1 1 0 0 1 1
   13       2    0 1 1 1 0 0 0 1 0 0 1 1 1 0 1 0 0 0 1 1 1 0 1 0 1 0 1 0 0 1 1 0 0 0 0 0 0 1 1 0 1 1 0 0 0 0 0 1 1 1 1
    0       0    0 1 0 0 1 0 1 1 0 1 1 1 0 0 0 0 1 0 0 0 0 1 0 1 1 1 0 0 0 0 0 1 0 1 1 0 0 1 1 0 1 1 1 1 0 0 1 1 1 1 1
    0       1    1 1 0 1 0 0 1 1 1 1 1 0 1 0 1 1 0 1 0 1 1 0 0 1 1
   14       2    0 1 1 1 0 0 0 1 0 0 1 1 1 0 1 0 0 0 1 1 1 0 1 0 1 0 1 0 0 1 1 0 0 0 0 0 0 1 1 0 1 1 0 0 0 0 0 1 1 1 1
    0       0    0 1 0 0 1 0 1 1 0 1 1 1 0 0 0 0 1 0 0 0 0 1 0 1 1 1 0 0 0 0 0 1 0 1 1 0 0 1 1 0 1 1 1 1 0 0 1 1 1 1 1
    0       1    1 1 0 1 0 0 1 1 1 1 1 0 1 0 1 1 0 1 0 1 1 0 0 1 1
   15       2    0 1 1 1 0 0 0 1 0 0 1 1 1 0 1 0 0 0 1 1 1 0 1 0 1 0 1 0 0 1 1 0 0 0 0 0 0 1 1 0 1 1 0 0 0 0 0 1 1 1 1
    0       0    0 1 0 0 1 0 1 1 0 1 1 1 0 0 0 0 1 0 0 0 0 1 0 1 1 1 0 0 0 0 0 1 0 1 1 0 0 1 1 0 1 1 1 1 0 0 1 1 1 1 1
    0       1    1 1 0 1 0 0 1 1 1 1 1 0 1 0 1 1 0 1 0 1 1 0 0 1 1
   16       2    0 1 1 1 0 0 0 1 0 0 1 1 1 0 1 0 0 0 0 1 1 0 1 0 1 1 1 0 0 1 1 0 0 0 0 0 0 1 1 0 1 1 0 0 0 0 0 1 1 1 1
    0       0    0 1 0 0 1 0 1 1 1 1 1 1 0 0 0 0 1 0 0 0 0 1 0 1 1 1 0 0 0 0 0 1 0 1 1 0 0 1 1 0 1 1 1 1 0 0 1 1 1 1 1
    0       1    1 1 0 1 0 0 1 1 1 1 1 0 1 0 1 1 0 1 0 1 1 0 0 1 1
   17       2    0 1 1 1 0 0 0 1 0 0 1 1 1 0 0 0 0 0 1 1 1 0 1 0 1 0 1 0 0 1 1 0 1 0 0 0 0 1 1 0 1 1 0 0 0 0 0 1 1 1 1
    0       0    0 1 0 0 1 0 1 1 0 1 1 1 0 0 0 0 1 0 0 0 0 1 0 1 1 1 0 0 0 0 0 1 0 1 1 0 0 1 1 0 1 1 1 1 0 0 1 1 1 1 1
    0       1    1 1 0 1 0 0 1 1 1 1 1 0 1 0 1 1 0 1 0 1 1 0 0 1 1
   18       2    0 1 1 1 0 0 0 1 0 0 1 1 1 0 1 0 0 0 1 1 1 0 1 0 1 1 1 0 0 1 1 0 1 0 0 1 0 1 1 0 1 1 0 0 1 0 0 1 1 1 1
    0       0    0 1 0 1 1 0 1 1 0 1 1 0 0 0 1 0 0 0 0 0 0 1 0 0 1 1 0 0 0 0 0 0 0 0 1 0 0 1 1 1 0 1 1 1 0 0 1 1 1 1 1
    0       1    1 1 0 0 1 1 1 0 0 1 1 0 1 0 1 0 0 1 0 1 1 0 0 1 1
   19       2    0 1 1 1 0 0 0 1 0 0 1 1 1 0 1 0 0 0 1 1 1 0 1 0 1 1 1 0 0 1 1 0 1 0 0 1 0 1 1 0 1 1 0 0 1 0 0 1 1 1 1
    0       0    0 1 0 1 1 0 1 1 0 1 1 0 0 0 1 0 0 0 0 0 0 1 0 1 1 1 0 0 0 0 0 0 0 0 1 1 0 1 1 1 0 1 1 1 0 0 1 1 1 1 1
    0       1    1 1 0 0 1 1 1 0 0 1 1 0 1 0 1 0 0 1 0 1 1 0 0 1 1
   20       2    0 1 1 1 0 0 0 1 0 0 1 1 1 1 1 0 0 0 1 1 1 0 1 0 1 1 1 0 0 1 1 0 0 1 0 1 0 1 1 0 1 1 0 0 1 1 0 1 1 1 1
    0       0    0 1 1 0 0 0 0 1 0 1 1 1 1 0 0 1 1 0 1 0 0 1 0 1 1 1 0 0 0 0 0 0 0 0 1 0 0 1 1 0 0 1 1 1 0 0 1 1 1 0 1
    0       1    1 1 0 0 1 1 0 1 0 1 1 1 1 0 1 1 0 1 0 1 1 0 0 1 1
   21       2    0 1 1 1 0 0 0 1 0 0 1 1 1 1 1 0 0 0 1 1 1 0 1 0 0 1 1 0 0 1 1 0 0 1 0 1 0 1 1 0 1 1 0 0 1 1 0 1 1 1 1
    0       0    0 1 1 0 0 0 0 1 0 1 1 1 1 0 0 1 1 0 1 0 0 1 0 1 1 1 0 0 0 0 0 0 0 0 1 0 1 1 1 0 0 1 1 1 0 0 1 1 1 0 1
    0       1    1 1 0 0 1 1 0 1 1 1 1 1 0 0 1 1 0 1 0 1 1 0 0 1 1
   22       2    0 1 1 1 0 0 0 1 0 0 1 1 1 0 1 1 0 0 1 0 1 0 1 1 0 1 1 0 0 1 1 0 0 1 0 1 0 1 1 0 1 1 0 0 1 1 0 1 1 1 1
    0       0    0 1 1 0 0 0 0 1 0 1 1 1 1 0 0 1 1 0 1 0 0 0 1 0 1 1 0 0 0 0 0 0 0 0 1 0 0 1 1 0 1 1 1 1 0 0 1 1 1 0 1
    0       1    1 1 0 0 1 1 0 1 1 1 1 1 0 0 1 1 0 1 0 1 1 0 0 1 1
   23       2    0 1 1 1 0 0 0 1 0 0 1 1 1 1 1 1 0 0 1 1 1 0 0 1 0 1 1 0 0 1 1 0 0 0 0 1 0 1 1 0 1 1 0 0 1 1 0 1 1 1 1
    0       0    0 1 1 0 0 0 0 1 0 0 1 1 1 1 1 1 1 0 1 0 0 1 0 1 1 1 0 0 0 0 0 0 0 0 1 0 1 1 1 0 0 1 1 1 0 0 1 1 1 0 1
    0       1    1 1 0 0 1 1 0 1 1 1 1 1 0 0 1 0 0 1 0 1 1 0 0 1 1
   24       2    0 1 1 1 0 0 0 1 0 0 1 1 1 0 1 0 0 0 1 0 1 0 1 0 1 0 1 1 1 1 1 1 1 0 0 0 0 1 1 0 1 1 0 0 1 0 1 1 1 1 1
    0       0    0 1 1 1 0 0 0 1 0 1 1 1 1 1 0 0 1 0 1 0 0 1 0 1 1 1 0 0 0 0 0 1 0 0 1 0 0 1 1 0 1 1 1 1 0 0 1 1 1 1 1
    0       1    1 1 0 0 1 0 1 1 1 1 1 0 0 0 1 1 0 1 0 1 1 0 0 1 1
   25       2    0 1 1 1 0 0 0 1 0 0 1 1 1 1 1 1 0 0 1 1 1 0 1 0 1 0 1 0 0 1 1 0 0 0 0 0 0 1 1 0 1 1 0 0 0 1 0 1 1 1 1
    0       0    0 1 1 0 0 0 0 1 1 1 1 1 1 0 0 1 0 0 1 0 0 1 0 0 1 1 0 0 0 0 0 0 0 0 1 0 0 1 1 0 1 1 1 1 0 0 1 1 0 0 1
    0       1    1 1 0 1 0 1 0 1 1 1 1 1 1 0 1 1 0 1 0 1 1 0 0 1 1
   26       2    0 1 1 1 0 0 0 1 0 0 1 1 1 0 1 1 0 0 1 0 1 0 1 1 0 0 1 0 1 1 1 1 0 0 0 1 0 1 1 0 1 1 0 0 1 0 1 1 1 1 1
    0       0    0 1 1 1 0 0 0 1 0 1 1 1 1 1 0 1 1 0 1 0 0 1 1 0 1 1 0 0 0 0 0 0 0 0 1 0 0 1 1 0 1 1 1 1 0 0 1 1 1 0 1
    0       1    1 1 0 0 1 1 0 1 1 1 1 0 0 0 1 1 0 1 0 1 1 0 0 1 1
   27       2    0 1 1 1 0 0 0 1 0 0 1 1 1 0 1 1 0 0 1 0 1 0 1 1 0 0 1 0 1 1 1 1 0 0 0 1 0 1 1 0 1 1 0 0 1 0 1 1 1 1 1
    0       0    0 1 1 1 0 0 0 1 0 1 1 1 1 1 0 1 1 0 1 0 0 0 1 0 1 1 0 0 0 0 0 0 0 0 1 0 0 1 1 0 1 1 1 1 0 0 1 1 1 0 1
    0       1    1 1 0 0 1 1 0 1 1 1 1 0 0 0 1 1 0 1 0 1 1 0 0 1 1
   28       2    0 1 1 1 0 0 0 1 0 0 1 1 1 1 1 0 0 0 1 1 1 0 1 0 1 0 1 0 1 1 1 1 0 0 0 1 0 1 1 0 1 1 0 0 1 0 1 1 1 1 1
    0       0    0 1 1 1 0 0 0 1 0 1 1 1 1 1 0 1 1 0 1 0 0 1 0 1 1 1 0 0 0 0 0 0 0 0 1 0 0 1 1 0 0 1 1 1 0 0 1 1 1 0 1
    0       1    1 1 0 0 1 1 0 1 0 1 1 0 1 0 1 1 0 1 0 1 1 0 0 1 1
   29       2    0 1 1 1 0 0 0 1 0 0 1 1 1 0 1 0 0 0 1 0 1 0 1 0 1 0 1 0 1 1 1 1 0 0 0 0 0 1 1 0 1 1 0 0 1 0 1 1 1 1 1
    0       0    0 1 1 1 0 0 0 1 1 1 1 1 0 1 0 1 1 0 1 0 0 0 0 1 1 1 0 0 0 0 0 0 0 0 1 0 0 1 1 0 0 1 1 1 0 0 1 1 1 0 1
    0       1    1 1 0 0 1 1 0 1 1 1 1 0 1 0 1 1 0 1 0 1 1 0 0 1 1
   30       2    0 1 1 1 0 0 0 1 0 0 1 1 1 1 1 0 0 0 1 1 1 0 1 0 1 0 1 0 0 1 1 1 0 0 0 0 0 1 1 0 1 1 0 0 0 0 0 1 1 1 1
    0       0    0 1 1 0 0 0 0 1 0 1 1 1 1 0 0 0 0 0 1 0 0 1 0 0 1 1 0 0 0 0 0 0 0 0 1 0 0 1 1 0 0 1 1 1 0 0 1 1 0 0 1
    0       1    1 1 0 1 0 1 1 1 1 1 1 0 1 0 1 1 0 1 0 1 1 0 0 1 1
   31       2    0 1 1 1 0 0 0 1 0 0 1 1 1 1 1 0 0 0 1 1 1 0 1 0 1 0 1 0 0 1 1 1 0 0 0 0 0 1 1 0 1 1 0 0 0 0 0 1 1 1 1
    0       0    0 1 1 0 0 0 0 1 0 1 1 1 1 0 0 0 0 0 1 0 0 1 0 0 1 1 0 0 0 0 0 0 0 0 1 0 0 1 1 0 0 1 1 1 0 0 1 1 0 0 1
    0       1    1 1 0 1 0 1 1 1 1 1 1 0 1 0 1 1 0 1 0 1 1 0 0 1 1
   32       2    0 1 1 1 0 0 0 1 0 0 1 1 1 0 1 0 0 0 1 1 1 0 1 0 1 0 1 0 0 1 1 0 0 0 0 1 0 1 1 0 1 1 0 0 0 0 1 1 1 1 1
    0       0    0 1 1 1 1 0 0 1 0 0 1 1 0 0 0 0 1 0 1 0 0 1 0 1 1 1 0 0 0 0 0 1 0 1 1 0 0 1 1 0 1 1 1 1 0 0 1 0 1 1 1
    0       1    1 1 0 1 0 1 1 1 1 1 1 1 1 0 1 1 0 1 0 1 1 0 0 1 1
   33       2    0 1 1 1 0 0 0 1 0 0 1 1 1 0 1 1 0 0 1 1 1 0 1 1 1 0 1 0 0 1 1 0 1 0 0 0 0 1 1 0 1 1 0 0 1 1 1 1 1 1 1
    0       0    1 1 1 1 0 0 0 1 0 1 1 1 1 1 0 0 1 0 1 0 0 1 0 1 1 1 0 0 0 0 0 0 0 1 1 0 0 1 1 0 1 1 1 1 0 0 1 1 1 1 1
    0       1    1 1 0 0 0 0 0 1 1 1 0 0 0 0 1 1 0 1 0 1 1 0 0 1 1
   34       2    0 1 1 1 0 0 0 1 0 0 1 1 1 1 1 1 0 0 1 1 1 0 1 0 1 0 1 0 0 1 1 0 0 0 0 1 0 1 1 0 1 1 0 0 1 0 0 1 1 1 1
    0       0    1 1 1 1 0 0 0 1 0 1 1 1 1 1 0 1 1 0 1 0 0 1 1 1 1 1 0 0 0 0 0 1 0 0 1 0 0 1 1 0 1 1 1 1 0 0 1 1 1 0 1
    0       1    1 1 0 0 0 1 1 0 1 1 1 1 1 0 0 1 1 1 0 1 1 0 0 1 1
   35       2    0 1 1 1 0 0 0 1 0 0 1 1 1 1 1 1 0 0 1 1 1 0 1 0 1 1 0 0 0 1 1 0 0 0 0 0 0 1 1 0 1 1 0 0 1 1 0 1 1 1 1
    0       0    1 1 1 0 0 0 0 1 0 1 1 1 1 1 0 1 1 0 1 0 0 1 0 1 1 1 0 0 0 0 0 0 0 0 1 0 0 1 1 0 1 1 1 1 0 0 1 1 1 0 1
    0       1    1 1 0 0 0 1 0 1 1 1 1 1 1 0 1 1 0 1 0 1 1 0 0 1 1
   36       2    0 1 1 1 0 0 0 1 0 0 1 1 1 1 1 1 0 0 1 1 1 0 1 0 1 1 0 0 0 1 1 0 0 0 0 0 0 1 1 0 1 1 0 0 1 1 0 1 1 1 1
    0       0    1 1 1 0 0 0 0 1 0 1 1 1 1 1 0 1 1 0 1 0 0 1 0 1 1 1 0 0 0 0 0 0 0 0 1 0 0 1 1 0 1 1 1 1 0 0 1 1 1 0 1
    0       1    1 1 0 0 0 1 0 1 1 1 1 1 1 0 1 1 0 1 0 1 1 0 0 1 1
   37       2    0 1 1 1 0 0 0 1 0 0 1 1 1 1 1 1 0 0 1 1 1 0 1 0 1 1 0 0 0 1 1 0 0 0 0 0 0 1 1 0 1 1 0 0 1 1 0 1 1 1 1
    0       0    1 1 1 0 0 0 0 1 0 1 1 1 1 1 0 1 1 0 1 0 0 1 0 1 1 1 0 0 0 0 0 0 0 0 1 0 0 1 1 0 1 1 1 1 0 0 1 1 1 0 1
    0       1    1 1 0 0 0 1 0 1 1 1 1 1 1 0 1 1 0 1 0 1 1 0 0 1 1
   38       2    0 1 1 1 0 0 0 1 0 0 1 1 1 1 1 0 0 0 1 1 1 0 1 1 1 1 0 0 0 1 1 0 0 0 0 0 0 1 1 0 1 1 0 0 1 1 0 1 1 1 1
    0       0    1 1 1 0 0 0 0 0 0 1 1 1 1 0 0 1 0 0 1 0 0 1 0 1 1 1 0 0 0 0 0 0 0 0 1 0 0 1 1 0 1 1 1 1 0 0 1 1 1 0 1
    0       1    1 1 0 0 0 1 0 1 1 1 1 1 1 0 1 1 0 1 0 1 1 0 0 1 1
   39       2    0 1 1 1 0 0 0 1 0 0 1 1 1 1 1 1 0 0 1 1 1 0 1 0 0 1 1 0 0 1 1 0 0 0 0 0 0 1 1 0 1 1 0 0 1 1 0 1 1 1 1
    0       0    1 1 1 0 0 0 0 1 0 0 1 1 1 1 0 1 1 0 1 0 0 1 0 1 1 1 0 0 0 0 0 0 0 0 1 0 0 1 1 0 1 1 1 1 0 0 1 1 1 0 1
    0       1    1 1 0 0 0 1 0 1 1 1 1 1 0 0 1 1 0 1 0 1 1 0 0 1 1
   40       2    0 1 1 1 0 0 0 1 0 0 1 1 1 0 1 0 0 0 1 1 1 0 1 0 1 0 1 0 0 1 1 0 0 0 0 1 0 1 1 0 1 1 0 0 0 0 1 1 1 1 1
    0       0    1 1 1 1 0 0 0 1 0 1 1 1 1 1 0 0 1 0 1 0 0 1 0 1 1 1 0 0 0 0 0 0 0 0 1 0 0 1 1 0 0 1 1 1 0 0 1 1 1 1 1
    0       1    1 1 0 0 0 1 1 1 1 1 1 1 1 0 0 1 0 1 0 1 1 0 0 1 1
   41       2    0 1 1 1 0 0 0 1 0 0 1 1 1 0 1 0 0 0 1 1 1 0 1 0 1 0 1 0 0 1 1 0 0 0 0 1 0 1 1 0 1 1 0 0 0 0 1 1 1 1 1
    0       0    1 1 1 1 0 0 0 1 0 1 1 1 1 1 0 0 1 0 1 0 0 1 0 1 1 1 0 0 0 0 0 0 0 0 1 0 0 1 1 0 0 1 1 1 0 0 1 1 1 1 1
    0       1    1 1 0 0 0 1 1 1 1 1 1 1 1 0 0 1 0 1 0 1 1 0 0 1 1
   42       2    0 1 1 1 0 0 0 1 0 0 1 1 1 0 1 0 0 0 1 1 1 0 1 0 1 0 1 0 0 1 1 0 0 0 0 1 0 1 1 0 1 1 0 0 0 0 1 1 1 1 1
    0       0    1 1 1 1 0 0 0 1 0 0 1 1 1 1 0 0 1 0 1 0 0 1 0 1 1 1 0 0 0 0 0 0 0 0 1 0 0 1 1 0 0 1 1 1 0 0 1 1 1 1 1
    0       1    1 1 0 0 0 1 1 1 1 1 1 1 1 0 0 1 1 1 0 1 1 0 0 1 1
   43       2    0 1 1 1 0 0 0 1 0 0 1 1 1 1 1 0 0 0 1 1 1 0 0 0 1 1 1 0 0 1 1 0 0 1 0 1 0 1 1 0 1 1 0 0 0 1 0 1 1 1 1
    0       0    1 1 1 1 0 0 0 1 0 1 0 1 1 0 0 1 1 0 1 0 0 1 0 1 1 1 0 0 0 0 0 0 0 0 1 0 0 1 1 0 0 1 1 1 0 0 1 1 1 0 1
    0       1    1 1 0 0 1 0 0 0 1 1 1 0 1 0 1 1 0 1 0 1 1 0 0 1 1
   44       2    0 1 1 1 0 0 0 1 0 0 1 1 1 1 1 0 0 0 1 1 1 1 1 0 1 0 1 1 0 1 1 1 0 1 0 1 1 1 1 0 1 1 0 0 0 1 0 1 1 1 1
    0       0    1 1 1 1 0 0 0 1 0 1 0 1 1 0 0 1 1 0 1 0 0 1 0 1 1 1 0 0 0 0 0 0 0 0 0 0 0 1 1 0 0 1 1 1 0 0 1 1 1 0 1
    0       1    1 1 0 0 1 0 0 0 1 1 1 0 0 0 0 1 0 1 0 1 1 0 0 1 1
   45       2    0 1 1 1 0 0 0 1 0 0 1 1 1 1 1 0 0 0 1 1 1 0 1 0 1 1 1 0 0 1 1 0 0 1 0 1 0 1 1 0 1 1 0 0 0 1 0 1 1 1 1
    0       0    1 1 1 1 0 0 0 1 0 1 0 1 1 0 0 1 1 1 1 0 0 1 0 1 1 1 0 0 0 0 0 0 0 0 1 0 0 1 1 0 0 1 1 1 0 0 1 1 1 0 1
    0       1    1 1 0 0 1 0 0 0 1 1 0 1 1 0 1 1 0 1 0 1 1 0 0 1 1
   46       2    0 1 1 1 0 0 0 1 0 0 1 1 0 1 1 1 0 1 1 1 1 0 1 1 1 0 0 0 0 1 1 0 0 0 0 1 0 1 1 0 1 1 0 0 1 0 0 1 1 1 1
    0       0    1 1 1 0 0 0 0 1 0 1 1 1 1 1 0 1 1 0 1 0 0 1 0 1 1 1 0 0 0 0 0 1 0 0 1 0 0 1 1 0 1 1 1 1 0 0 1 1 1 0 1
    0       1    1 1 0 0 0 1 1 1 1 1 1 1 1 0 1 1 0 0 0 1 1 0 0 1 1
   47       2    0 1 1 1 0 0 0 1 0 0 1 1 0 1 1 1 0 1 1 1 1 0 1 1 1 0 0 0 0 1 1 0 0 0 0 1 0 1 1 0 1 1 0 0 1 0 0 1 1 1 1
    0       0    1 1 1 0 0 0 0 1 0 1 1 1 1 1 0 1 1 0 1 0 0 1 0 1 1 1 0 0 0 0 0 1 0 0 1 0 0 1 1 0 1 1 1 1 0 0 1 1 1 0 1
    0       1    1 1 0 0 0 1 1 1 1 1 1 1 1 0 1 1 0 0 0 1 1 0 0 1 1
   48       2    0 1 1 1 0 0 0 1 0 0 1 1 0 1 1 1 0 1 1 1 1 0 1 1 1 0 0 0 0 1 1 0 0 0 0 1 0 1 1 0 1 1 0 0 1 0 0 1 1 1 1
    0       0    1 1 1 0 0 0 0 1 0 1 1 1 1 1 0 1 1 0 1 0 0 1 0 1 1 1 0 0 0 0 0 1 0 0 1 0 0 1 1 0 1 1 1 1 0 0 1 1 1 0 1
    0       1    1 1 0 0 0 1 1 1 1 1 1 1 1 0 1 1 0 0 0 1 1 0 0 1 1
   49       2    0 1 1 1 0 0 0 1 0 0 1 1 0 0 1 1 0 1 1 1 1 0 1 1 1 0 0 0 0 1 1 0 0 0 0 1 0 1 1 0 1 1 0 0 1 0 0 1 1 1 1
    0       0    1 1 1 0 0 0 0 1 0 1 1 1 1 1 0 0 0 0 1 0 0 1 0 1 1 1 0 0 0 0 0 0 0 0 0 0 0 1 1 0 0 1 1 1 0 0 1 1 1 0 1
    0       1    1 1 0 0 0 1 1 1 1 1 1 1 1 0 1 1 0 0 0 1 1 0 0 1 1
   50       2    0 1 1 1 0 0 0 1 0 0 1 1 1 1 1 0 0 1 1 1 1 0 1 1 1 0 1 0 1 1 0 0 0 0 0 1 0 1 1 0 1 1 0 0 1 0 0 1 1 1 1
    0       0    1 1 1 0 0 0 0 1 0 1 1 1 1 0 0 1 1 0 1 0 0 1 0 1 1 1 0 0 0 0 0 0 0 0 1 0 0 1 1 0 1 1 1 1 0 0 1 1 1 0 1
    0       1    1 1 0 0 0 1 1 1 1 1 1 1 1 0 1 1 0 1 0 1 1 0 0 1 1
   51       2    0 1 1 1 0 0 0 1 0 0 1 1 0 1 1 1 0 1 1 1 1 0 1 1 1 0 0 0 0 1 1 0 0 0 0 1 0 1 1 0 1 1 0 0 1 0 0 1 1 1 1
    0       0    1 1 1 0 0 0 0 1 0 0 1 1 1 1 0 1 1 0 1 0 0 1 0 1 1 1 0 0 0 0 0 1 0 0 1 0 0 1 1 0 1 1 1 1 0 0 1 1 1 0 1
    0       1    1 1 0 0 0 1 1 1 1 1 1 1 1 0 1 1 0 0 0 1 1 0 0 1 1
   52       2    0 1 1 1 0 0 0 1 0 0 1 1 0 1 1 1 0 1 1 1 1 1 1 1 1 0 0 0 0 1 1 0 0 0 0 1 0 1 1 0 1 1 0 0 1 0 0 1 1 1 1
    0       0    1 1 1 0 0 0 0 1 0 1 1 1 1 1 0 1 1 0 1 0 0 1 0 1 1 1 0 0 0 0 0 1 0 0 1 0 0 1 1 0 1 1 1 1 0 0 1 1 1 0 1
    0       1    1 1 0 0 0 1 1 1 1 1 1 1 1 0 1 1 0 0 0 1 1 0 0 1 1
   53       2    0 1 1 1 0 0 0 1 0 0 1 1 1 1 1 1 1 1 1 1 1 0 1 1 1 0 0 0 0 1 1 0 0 0 0 1 0 1 1 0 1 1 0 0 1 0 0 1 1 1 1
    0       0    1 1 1 0 0 0 0 1 0 1 1 1 1 1 0 1 0 0 1 0 0 1 0 1 1 1 0 0 0 0 0 1 0 0 1 0 0 1 1 0 1 1 1 1 0 0 1 1 1 0 1
    0       1    1 1 0 0 0 1 1 1 1 1 1 1 1 0 1 1 0 0 0 1 1 0 0 1 1
   54       2    0 1 1 1 0 0 0 1 0 0 1 1 1 1 1 0 0 1 1 1 1 0 1 1 1 0 0 0 1 1 1 0 0 0 0 1 0 1 1 0 1 1 0 0 1 0 0 1 1 1 1
    0       0    1 1 1 0 0 0 0 1 0 1 1 1 1 1 0 1 1 0 1 0 0 1 0 0 1 1 0 0 0 0 0 0 0 0 1 0 0 1 1 0 1 1 1 1 0 0 1 1 1 0 1
    0       1    1 1 0 0 0 1 1 1 1 1 1 1 1 0 1 1 0 1 0 1 1 0 0 1 1
   8800000.00000000        1618033.00000000       0.000000000000000E+000
  1.136363636363636E-007   4757251.00000000        3852669.00000000     
           1          29           5
   7840505.00000000        7740352.00000000        2285044.00000000     
   5774706.00000000        3348970.00000000        5534051.00000000     
   1124351.00000000        5762731.00000000        6387302.00000000     
   671112.000000000        2660856.00000000        7462882.00000000     
   6367525.00000000        5164128.00000000        315329.000000000     
   4280633.00000000        7153685.00000000        3087386.00000000     
   4726175.00000000        5986887.00000000        3475541.00000000     
   8145947.00000000        3956856.00000000        4698041.00000000     
   6186480.00000000        881677.000000000        8760745.00000000     
   8722293.00000000        4757251.00000000        4753970.00000000     
   7187683.00000000        5747123.00000000        7243677.00000000     
   3421001.00000000        3579303.00000000        3334130.00000000     
   5540689.00000000        3906704.00000000        4761522.00000000     
   4074855.00000000        307361.000000000        7539191.00000000     
   2993022.00000000        5160467.00000000        6965392.00000000     
   317239.000000000        1593482.00000000        3812033.00000000     
   5862451.00000000        5331194.00000000        6759494.00000000     
   4146978.00000000        7551980.00000000        8112938.00000000     
   5110845.00000000     
   8800000.00000000        1618033.00000000       0.000000000000000E+000
  1.136363636363636E-007   4605659.00000000        8395837.00000000     
           1          29           5
   2406561.00000000        7550520.00000000        2659628.00000000     
   5315922.00000000        4378786.00000000        6375219.00000000     
   6106999.00000000        1501803.00000000        7154638.00000000     
   1656904.00000000        8501776.00000000        5366722.00000000     
   5632093.00000000        1674416.00000000        6855457.00000000     
   5713449.00000000        3559133.00000000        2292082.00000000     
   6100135.00000000        7375327.00000000        1258341.00000000     
   3004491.00000000        2733152.00000000        6298049.00000000     
   5642440.00000000        745149.000000000        3366409.00000000     
   8260005.00000000        4605659.00000000        4023170.00000000     
   1486051.00000000        5426763.00000000        750301.000000000     
   1973881.00000000        4325087.00000000        3310146.00000000     
   7024745.00000000        8348120.00000000        6647098.00000000     
   829463.000000000        610393.000000000        795615.000000000     
   5462214.00000000        8691555.00000000        45720.0000000000     
   4899967.00000000        5144818.00000000        3241225.00000000     
   8140147.00000000        5097626.00000000        4766726.00000000     
   6337146.00000000        1649596.00000000        3952322.00000000     
   1481029.00000000     
   8800000.00000000        1618033.00000000       0.000000000000000E+000
  1.136363636363636E-007   7777696.00000000        7073189.00000000     
           1          35          11
   1746106.00000000        8296435.00000000        5015214.00000000     
   5199515.00000000        4493085.00000000        79504.0000000000     
   3141216.00000000        7332418.00000000        5084828.00000000     
   6426783.00000000        3484853.00000000        5388285.00000000     
   3443054.00000000        5561949.00000000        2600496.00000000     
   5788140.00000000        7435988.00000000        1738672.00000000     
   4111988.00000000        8386686.00000000        6939160.00000000     
   1791066.00000000        3452606.00000000        3358469.00000000     
   404957.000000000        2504682.00000000        3497117.00000000     
   4302487.00000000        6201340.00000000        7858889.00000000     
   3453616.00000000        5355057.00000000        5124192.00000000     
   4515757.00000000        7777696.00000000        6326626.00000000     
   8465636.00000000        7513246.00000000        5784289.00000000     
   4357094.00000000        1370177.00000000        3873749.00000000     
   2102223.00000000        7047958.00000000        4745006.00000000     
   7517544.00000000        7077980.00000000        8649075.00000000     
   1552386.00000000        7161290.00000000        5286924.00000000     
   2563288.00000000        6060679.00000000        7593603.00000000     
   6598435.00000000     
