          69          54   1.00000000000000     
    1       2    0 0 1 1 1 1 0 1 0 0 1 0 1 0 1 1 1 1 1 1 1 0 1 1 0 0 0 1 0 0 0 0 1 0 0 1 1 0 0 1 0 0 1 1 1 0 0 1 1 1 1
    1       1    0 0 0 1 0 1 0 1 0 0 0 1 0 0 0 1 1 0 0 1 0 1 1 0 0 1 0 0 0 0 0 0 0 0 0 0 1 0 0 0 1 1 1 1 0 1 1 1 0 1 0
    1       0    1 1 1 0 1 1 1 1 0 0 0 0 0 1 1 1 1 0 0 1 1 0 0 1 1
    2       2    0 0 1 1 1 0 0 1 0 0 1 0 1 1 0 1 1 1 1 1 1 0 1 1 0 0 1 1 0 0 0 0 1 0 1 1 1 0 0 1 0 1 1 1 1 0 1 1 1 1 1
    1       1    0 0 0 1 0 1 0 1 0 0 1 1 0 0 0 1 1 0 1 1 0 1 1 0 0 1 0 0 0 0 0 0 0 0 1 0 1 0 0 0 1 1 1 1 0 1 1 1 0 1 0
    1       0    1 1 1 0 1 1 1 1 1 0 0 0 0 1 1 1 1 0 0 1 1 0 0 1 1
    3       2    1 0 1 1 1 1 0 1 0 0 1 0 1 0 1 0 0 1 0 1 0 0 1 1 0 0 0 1 0 0 0 1 1 0 0 1 1 1 0 1 0 0 1 1 1 0 1 1 1 1 1
    1       1    0 0 0 1 1 0 0 0 0 0 1 1 1 0 0 1 1 0 0 0 0 1 1 0 0 1 0 0 0 0 0 0 0 0 0 0 1 0 0 0 1 1 1 1 0 1 1 1 0 1 0
    1       0    1 1 1 0 1 1 1 1 1 0 0 0 1 1 1 1 1 0 0 1 1 0 0 1 1
    4       2    1 0 1 0 1 1 0 1 0 0 1 0 1 0 1 0 0 1 0 1 0 0 1 1 0 0 1 1 0 1 0 1 1 1 0 1 1 1 0 1 0 0 1 1 0 0 1 1 1 1 1
    1       1    0 1 0 1 1 0 0 0 0 0 0 1 1 0 0 1 1 0 0 0 0 0 1 1 0 1 0 0 0 0 0 0 0 0 0 0 1 0 0 0 1 1 1 1 0 1 1 1 0 1 0
    1       0    1 1 1 0 1 0 1 1 1 0 0 0 1 1 1 0 0 0 0 1 1 0 0 1 1
    5       2    1 0 1 0 1 1 0 1 0 0 1 0 1 0 1 0 1 1 0 1 0 0 1 1 0 0 1 1 0 0 0 1 1 1 0 1 1 1 0 0 0 0 1 1 0 0 1 1 1 1 1
    1       1    0 1 0 1 1 0 0 0 0 0 0 1 1 0 0 1 1 0 0 0 0 1 1 1 0 1 0 0 0 0 0 0 0 0 0 0 1 0 0 0 0 1 1 1 0 1 1 1 0 1 0
    1       0    1 1 1 0 1 0 1 1 1 0 0 0 1 1 1 0 0 0 0 1 1 0 0 1 1
    6       2    1 0 1 1 1 1 0 1 0 0 1 0 1 0 1 0 1 1 0 1 0 0 1 1 0 0 0 1 0 0 0 1 1 1 0 1 1 1 0 1 0 0 1 1 0 0 1 1 1 1 1
    1       1    0 1 0 1 1 0 0 0 0 0 0 1 1 0 0 1 1 0 0 0 0 0 1 1 0 1 0 0 0 0 0 0 0 1 0 0 1 0 0 0 1 1 1 1 0 1 1 1 0 1 0
    1       0    1 1 1 0 1 0 1 1 1 0 0 1 0 1 1 0 0 0 0 1 1 0 0 1 1
    7       2    0 0 0 0 1 1 0 1 0 0 1 0 1 0 1 1 1 1 1 1 1 0 1 1 0 0 1 1 0 0 0 0 1 1 0 1 1 0 0 1 1 0 1 1 0 0 0 1 1 1 1
    1       1    0 1 0 1 0 1 0 1 0 1 0 1 0 0 0 1 1 0 0 1 0 0 1 1 0 1 0 0 0 0 0 0 0 0 0 0 1 0 0 0 1 1 1 1 0 1 1 1 0 1 0
    1       0    1 1 1 0 1 0 1 1 0 0 0 0 0 1 1 1 0 0 0 1 1 0 0 1 1
    8       2    0 0 0 0 1 1 0 1 0 0 1 0 1 0 1 1 1 1 1 1 1 0 1 1 0 0 0 1 0 0 0 0 1 1 0 1 1 1 0 1 1 0 1 0 1 0 0 1 1 1 1
    1       1    0 1 0 1 1 1 0 1 0 1 0 1 0 0 0 1 1 0 0 1 0 0 1 1 0 1 0 0 0 0 0 0 0 0 0 0 1 1 0 0 1 1 1 1 0 1 1 1 0 1 0
    1       0    1 1 1 0 1 0 1 1 1 0 0 0 0 1 1 1 0 0 0 1 1 0 0 1 1
    9       2    1 0 1 1 1 1 0 1 0 0 1 0 1 0 1 0 1 1 0 1 0 0 1 1 0 0 0 1 0 0 0 1 1 1 0 1 1 1 0 1 0 0 1 1 1 0 1 1 1 1 1
    1       1    0 1 1 1 1 1 0 0 0 0 0 1 1 0 0 1 1 0 0 0 0 1 1 0 0 1 0 0 0 0 0 0 0 0 0 0 1 1 0 0 1 1 1 1 0 1 1 1 0 1 0
    1       0    1 1 1 0 1 0 0 1 1 0 0 0 0 1 1 0 0 0 0 1 1 0 0 1 1
   10       2    1 0 1 1 1 1 0 1 0 0 1 0 1 0 1 0 0 1 0 1 0 0 1 1 0 0 0 1 0 0 0 0 1 1 0 1 1 1 0 1 0 0 1 1 1 0 1 1 1 1 1
    1       1    0 1 1 1 1 1 0 0 0 0 0 1 1 0 0 1 1 0 0 0 0 0 1 0 0 1 0 0 0 0 0 0 0 1 0 0 1 1 0 0 1 1 1 1 0 1 1 1 0 1 0
    1       0    1 1 1 0 1 0 0 1 1 0 0 0 0 1 1 0 0 0 0 1 1 0 0 1 1
   11       2    1 0 1 0 1 1 0 1 0 0 1 0 1 0 1 0 0 1 0 1 0 0 1 1 0 0 1 1 0 1 1 0 1 1 0 1 1 1 0 1 0 0 1 1 1 0 1 1 1 1 1
    1       1    0 1 1 1 1 1 0 1 0 0 0 1 1 0 0 1 1 0 0 0 0 0 1 0 0 1 0 0 0 0 0 0 0 0 0 0 1 1 0 0 1 1 1 1 0 1 1 1 0 1 0
    1       0    1 1 1 0 1 0 0 1 1 0 0 0 1 1 1 0 0 0 0 1 1 0 0 1 1
   12       2    0 0 1 0 1 1 0 1 0 0 1 0 0 1 0 1 0 1 0 1 0 0 1 1 0 0 0 0 0 1 0 0 1 0 1 1 0 0 0 1 0 1 1 1 1 0 1 1 1 1 1
    1       1    0 0 0 0 1 1 1 0 1 1 0 1 1 0 0 1 1 1 0 0 0 1 1 1 0 1 0 0 0 0 0 0 0 0 1 0 1 0 0 0 1 1 1 1 0 1 1 0 0 0 0
    1       0    1 1 1 1 1 0 1 0 1 0 0 0 0 1 1 0 0 1 0 1 1 0 0 1 1
   13       2    0 0 1 1 1 1 0 1 0 0 1 0 1 0 1 1 1 1 1 1 0 0 1 1 0 0 0 1 0 0 0 1 1 0 0 1 0 1 0 1 0 1 1 1 1 0 1 1 1 1 1
    1       1    0 1 1 0 0 1 1 0 0 1 1 1 0 0 0 1 1 0 1 1 0 1 1 1 0 1 0 0 0 0 0 0 0 0 1 0 1 1 0 0 1 1 1 1 0 1 1 1 0 0 0
    1       0    1 1 1 0 1 1 0 0 0 0 0 0 0 1 1 0 0 1 0 1 1 0 0 1 1
   14       2    0 0 1 1 1 1 0 1 0 0 1 0 1 0 1 1 1 1 1 1 0 0 1 1 0 0 0 1 0 0 0 1 1 0 0 1 0 1 0 1 0 1 1 1 1 0 1 1 1 1 1
    1       1    0 1 1 0 0 1 1 1 0 1 1 1 0 0 0 1 1 0 1 1 0 1 1 1 0 1 0 0 0 0 0 0 0 0 1 0 1 1 0 0 1 1 1 1 0 1 1 1 0 0 0
    1       0    1 1 1 0 1 1 0 0 0 0 0 0 0 1 1 0 0 1 0 1 1 0 0 1 1
   15       2    0 1 1 0 1 1 0 1 0 0 1 0 1 1 1 1 0 1 0 1 0 0 1 1 0 0 0 1 0 1 0 1 1 0 0 1 1 0 0 1 0 1 1 1 1 1 1 1 1 1 1
    1       1    0 1 0 0 1 1 0 0 0 1 1 1 1 0 0 1 1 1 1 1 0 1 1 1 0 1 0 0 0 0 0 0 0 0 1 0 1 0 0 0 1 1 1 1 0 1 1 0 1 0 0
    1       0    1 1 1 1 0 0 1 0 1 0 0 0 0 1 1 0 0 1 0 1 1 0 0 1 1
   16       2    0 1 1 1 1 1 0 1 0 0 1 0 1 1 1 1 1 1 0 1 0 0 1 1 0 0 1 1 0 0 0 0 1 1 0 1 1 0 0 1 0 1 1 1 0 0 1 1 1 1 1
    1       1    0 1 0 0 1 1 0 0 0 0 1 1 0 0 1 1 1 1 1 0 0 1 1 1 0 1 0 0 0 0 0 0 0 0 1 0 1 0 0 0 1 1 1 1 0 1 1 0 1 0 0
    1       0    1 1 1 1 0 0 1 0 1 0 0 0 0 1 1 0 0 1 0 1 1 0 0 1 1
   17       2    0 1 1 0 1 1 0 1 0 0 1 0 1 1 1 1 1 1 0 1 0 0 1 1 0 0 1 1 0 1 0 0 1 0 0 1 1 1 0 1 0 1 1 1 1 0 1 1 1 1 1
    1       1    0 1 0 0 1 1 0 0 0 1 0 1 0 0 1 1 1 0 0 0 0 1 1 0 0 1 0 0 0 0 0 0 0 0 0 0 1 0 0 0 1 1 1 1 0 1 1 0 1 0 0
    1       0    1 1 1 1 0 0 1 0 1 0 0 0 0 1 1 0 0 1 0 1 1 0 0 1 1
   18       2    0 1 1 0 1 1 0 1 0 0 1 0 1 1 1 1 1 1 0 1 0 0 1 1 0 0 1 1 0 0 0 1 1 0 0 1 0 0 0 1 0 1 1 1 1 1 0 1 1 1 1
    1       1    0 1 0 0 1 0 0 0 0 0 1 1 1 0 0 1 1 0 0 0 0 1 1 1 0 1 0 0 0 0 0 0 0 0 1 0 1 1 0 0 1 1 1 1 0 1 1 0 1 0 0
    1       0    1 1 1 1 0 0 1 0 1 0 0 0 0 1 1 0 1 1 0 1 1 0 0 1 1
   19       2    0 1 1 1 1 1 0 1 0 0 1 0 1 1 1 1 0 1 0 1 0 0 1 1 0 0 0 1 0 1 0 0 1 0 0 1 1 0 0 1 0 1 1 1 0 0 1 1 1 1 1
    1       1    0 1 0 0 1 1 0 0 0 0 1 1 1 0 0 1 1 1 1 1 0 1 1 1 0 1 0 0 0 0 0 0 0 0 1 0 1 0 0 0 1 1 1 1 0 1 1 0 1 0 0
    1       0    1 1 1 1 0 0 1 0 1 0 0 0 0 1 1 0 0 1 0 1 1 0 0 1 1
   20       2    0 0 1 1 1 1 0 1 0 0 1 0 1 1 1 1 1 1 0 1 0 0 1 1 0 0 0 1 0 1 0 0 1 0 0 1 0 1 0 1 0 1 1 1 1 0 1 1 1 1 1
    1       1    0 1 0 0 1 1 0 0 0 0 0 1 1 0 1 1 1 1 1 0 0 1 1 0 0 1 0 0 0 0 0 0 0 0 1 0 1 0 0 0 1 1 1 1 0 1 1 0 1 0 0
    1       0    1 1 1 1 0 0 1 0 1 0 0 0 0 1 1 0 0 1 0 1 1 0 0 1 1
   21       2    0 1 1 1 1 1 0 1 0 0 1 0 1 1 1 1 0 1 0 1 0 0 1 1 0 0 0 1 0 1 0 0 1 0 0 1 1 0 0 1 0 1 1 1 0 0 0 1 1 1 1
    1       1    0 1 0 0 1 1 0 0 0 0 1 1 1 0 0 1 1 1 1 1 0 1 0 1 0 1 0 0 0 0 0 0 0 1 1 0 1 0 0 0 1 1 1 1 0 1 1 0 1 0 0
    1       0    1 1 1 1 0 0 1 0 1 0 0 0 0 1 1 0 1 1 0 1 1 0 0 1 1
   22       2    0 1 1 1 1 1 0 1 0 0 1 0 1 1 1 1 0 1 0 1 0 0 1 1 0 0 0 1 0 1 0 0 1 0 0 1 1 0 0 1 0 1 1 1 0 0 1 1 1 1 1
    1       1    0 1 0 0 1 1 0 0 0 0 1 1 1 0 0 1 1 1 1 1 0 1 1 1 0 1 0 0 0 0 0 1 0 0 1 0 1 0 0 0 1 1 1 1 0 1 1 0 1 0 0
    1       0    1 1 1 1 0 0 1 0 1 0 0 0 0 1 1 0 0 1 0 1 1 0 0 1 1
   23       2    0 0 1 1 1 1 0 1 0 0 1 0 1 1 1 1 0 1 0 1 1 0 1 1 0 0 1 1 0 1 0 0 1 1 1 1 0 1 0 1 0 1 1 1 1 0 1 1 1 1 1
    1       1    0 1 0 0 1 1 0 0 0 1 1 1 1 0 1 1 1 1 1 0 0 1 1 0 0 1 0 0 0 0 0 0 0 0 1 0 1 0 0 0 1 1 1 1 0 1 1 0 1 0 0
    1       0    1 1 1 1 0 0 1 0 1 0 0 0 0 1 1 0 0 1 0 1 1 0 0 1 1
   24       2    0 1 1 0 1 1 0 1 0 0 1 0 1 1 0 1 0 1 0 1 1 0 1 1 0 0 0 1 0 1 0 0 1 0 1 1 0 1 0 1 0 1 1 1 1 0 1 1 1 1 1
    1       1    0 1 0 0 0 1 0 0 0 1 0 1 1 0 0 1 1 1 1 1 0 1 1 1 0 1 0 0 0 0 0 0 0 0 0 0 1 0 0 0 0 1 1 1 0 1 1 0 1 0 0
    1       0    1 1 1 1 0 0 1 0 1 1 0 1 0 1 1 0 0 1 0 1 1 0 0 1 1
   25       2    0 1 1 1 1 1 0 1 0 0 1 0 1 1 1 1 0 1 0 1 0 0 1 1 0 0 0 1 0 1 0 1 1 0 0 0 1 0 0 1 0 1 1 1 1 1 1 1 1 1 1
    1       1    0 1 0 0 1 1 0 0 0 1 1 1 1 0 0 0 1 0 1 1 0 0 1 1 0 1 0 0 0 0 0 0 0 1 1 0 0 0 0 0 1 1 1 1 0 1 1 0 1 0 0
    1       0    1 1 1 1 0 0 1 0 1 0 0 0 0 1 1 0 1 1 0 1 1 0 0 1 1
   26       2    0 1 1 0 1 1 0 1 0 0 1 0 1 1 1 1 0 1 0 1 0 0 1 1 0 0 0 1 0 0 0 1 1 0 0 1 0 1 0 1 0 1 1 1 1 1 0 1 1 1 1
    1       1    0 1 0 0 1 1 1 0 0 0 1 1 1 0 0 1 1 0 1 0 0 1 1 1 0 1 0 0 0 0 0 0 0 0 1 0 1 0 0 0 1 1 1 1 0 1 1 0 1 0 0
    1       0    1 1 1 1 0 0 1 0 1 0 0 0 0 1 1 0 1 1 0 1 1 0 0 1 1
   27       2    0 1 1 1 1 1 0 1 0 0 1 0 1 1 1 1 0 1 0 1 0 0 1 1 0 0 1 1 0 0 0 0 1 1 0 1 1 0 0 1 0 1 1 1 0 0 1 1 1 1 1
    1       1    0 1 0 0 1 1 0 0 0 0 1 1 0 0 1 1 1 1 1 0 0 1 1 1 0 1 0 0 0 0 0 0 0 0 1 0 1 0 0 0 1 1 1 1 0 1 1 0 1 0 0
    1       0    1 1 1 1 0 0 1 0 1 0 0 0 0 1 1 0 0 1 0 1 1 0 0 1 1
   28       2    0 1 1 0 1 1 0 1 0 0 1 0 1 1 1 1 0 1 0 1 0 0 1 1 0 0 0 1 0 1 0 0 1 0 0 1 1 0 0 1 0 1 1 1 1 1 1 1 1 1 1
    1       1    0 1 0 0 1 1 0 0 0 1 1 1 1 0 0 1 1 1 1 1 0 1 1 1 0 1 0 0 0 0 0 1 0 0 0 0 1 0 0 0 1 1 1 1 0 1 1 0 1 0 0
    1       0    1 1 1 1 0 0 1 0 1 0 0 0 0 1 1 0 0 1 0 1 1 0 0 1 1
   29       2    0 1 1 1 1 1 0 1 0 0 1 0 1 1 0 1 0 1 0 1 0 0 1 1 0 0 0 0 0 1 0 0 1 0 1 0 1 0 0 1 0 1 1 1 0 1 1 1 1 1 1
    1       1    0 1 0 0 1 1 0 0 0 1 0 1 1 0 0 0 1 0 1 1 0 1 1 1 0 1 0 0 0 0 0 0 0 1 1 0 1 0 0 0 0 1 1 1 0 1 1 0 1 0 0
    1       0    1 1 1 1 0 0 1 0 1 0 0 1 0 1 1 0 1 1 0 1 1 0 0 1 1
   30       2    0 1 1 0 1 1 0 1 0 0 1 0 1 1 1 1 0 1 0 1 1 0 1 1 0 0 0 1 0 1 0 1 1 0 0 1 0 1 0 1 0 1 1 1 1 0 1 1 1 1 1
    1       1    0 1 0 0 0 1 0 0 0 1 1 1 1 0 0 1 1 1 1 1 0 0 1 1 0 1 0 0 0 0 0 0 0 0 0 0 0 0 0 0 1 1 1 1 0 1 1 0 1 0 0
    1       0    1 1 1 1 0 0 1 0 1 1 0 0 0 1 1 0 0 1 0 1 1 0 0 1 1
   31       2    0 1 1 0 1 1 0 1 0 0 1 0 1 1 1 1 1 1 0 1 0 0 1 1 0 0 1 1 0 0 0 1 1 0 0 1 0 0 0 1 0 1 1 1 1 1 0 1 1 1 1
    1       1    0 1 0 0 1 0 0 0 0 0 1 1 1 0 0 1 1 0 0 0 0 1 1 1 0 1 0 0 0 0 0 0 0 0 1 0 1 1 0 0 1 1 1 1 0 1 1 0 1 0 0
    1       0    1 1 1 1 0 0 1 0 1 0 0 0 0 1 1 0 1 1 0 1 1 0 0 1 1
   32       2    0 1 1 0 1 1 0 1 0 0 1 0 1 1 1 1 0 1 0 1 0 0 1 1 0 0 0 1 0 1 0 0 1 0 0 1 0 1 0 1 0 1 1 1 1 0 1 1 1 1 1
    1       1    0 1 0 0 1 1 0 0 0 1 1 1 1 0 0 1 1 1 1 1 0 0 1 1 0 1 0 0 0 0 0 1 0 0 0 0 0 0 0 0 1 1 1 1 0 1 1 0 1 0 0
    1       0    1 1 1 1 0 0 1 0 1 1 0 0 0 1 0 0 0 1 0 1 1 0 0 1 1
   33       2    0 0 1 0 1 1 0 1 0 0 1 0 1 1 1 1 0 1 0 1 1 0 1 1 0 0 0 1 0 1 0 1 1 0 0 1 0 0 0 1 0 1 1 1 1 1 1 1 1 1 1
    1       1    0 1 0 0 0 1 0 0 0 1 1 1 1 0 0 1 1 1 1 1 0 1 1 1 0 1 0 0 0 0 0 0 0 0 0 0 1 0 0 0 1 1 1 1 0 1 1 0 1 0 0
    1       0    1 1 1 1 0 0 1 0 1 0 0 0 0 1 1 0 0 1 0 1 1 0 0 1 1
   34       2    0 1 1 0 1 1 0 1 0 0 1 0 1 1 1 1 0 1 0 1 0 0 1 1 0 0 0 1 0 1 0 0 1 0 0 1 0 0 0 1 0 1 1 1 1 0 0 1 1 1 1
    1       1    0 1 0 0 1 1 0 0 0 0 1 1 1 0 0 1 0 1 0 1 0 1 1 1 0 1 0 0 0 0 0 0 0 0 1 0 1 0 0 0 1 1 1 1 0 1 1 0 1 0 0
    1       0    1 1 1 1 0 0 1 0 1 0 0 0 0 1 1 0 1 1 0 1 1 0 0 1 1
   35       2    0 1 1 0 1 1 0 1 0 0 1 0 1 1 1 1 0 1 0 1 1 0 1 1 0 0 0 1 0 1 0 1 1 0 0 1 0 0 0 1 0 1 1 1 1 0 1 1 1 1 1
    1       1    0 1 0 0 1 1 0 0 0 1 1 1 1 0 0 1 1 0 0 1 0 1 1 1 0 1 0 0 0 0 0 0 0 0 0 0 0 0 0 0 1 1 1 1 0 1 1 0 1 0 0
    1       0    1 1 1 1 0 0 1 0 1 0 0 0 0 1 1 0 1 1 0 1 1 0 0 1 1
   36       2    0 1 1 0 0 1 0 1 0 0 1 0 1 1 1 1 0 1 0 1 0 0 1 1 0 0 1 1 0 1 0 0 1 0 0 1 1 0 0 1 0 1 1 1 1 0 1 1 1 1 1
    1       1    0 1 0 0 1 1 0 0 0 1 1 1 1 0 1 1 1 1 1 0 0 1 1 1 0 1 0 0 0 0 0 0 0 0 1 0 1 0 0 0 1 1 1 1 0 1 1 0 1 0 0
    1       0    1 1 1 1 0 0 1 0 1 0 0 0 0 1 1 0 0 0 0 1 1 0 0 1 1
   37       2    0 1 1 1 1 1 0 1 0 0 1 0 1 1 1 1 1 1 0 1 0 0 1 1 0 0 0 1 0 0 0 1 1 1 0 1 1 0 0 1 0 1 1 1 0 1 1 1 1 1 1
    1       1    0 1 0 0 1 1 0 0 0 0 1 1 0 0 0 1 1 1 1 1 0 1 1 1 0 1 0 0 0 0 0 0 0 0 1 0 1 0 0 0 1 1 1 1 0 1 1 0 1 0 0
    1       0    1 1 1 1 0 0 1 0 1 0 0 0 0 1 1 0 0 1 0 1 1 0 0 1 1
   38       2    0 1 1 0 1 1 0 1 0 0 1 0 1 1 1 1 1 1 0 1 0 0 1 1 0 1 1 1 0 0 0 1 1 1 0 1 1 0 0 1 0 1 1 1 0 1 0 1 1 1 1
    1       1    0 1 0 0 1 1 0 0 0 0 1 1 0 0 0 1 1 0 1 0 0 1 1 1 0 1 0 0 0 0 0 0 0 0 1 0 1 0 0 0 1 1 1 1 0 1 1 0 1 0 0
    1       0    1 1 1 1 0 0 1 0 1 0 0 0 0 1 1 0 0 1 0 1 1 0 0 1 1
   39       2    0 1 1 0 1 1 0 1 0 0 1 0 1 1 1 1 1 1 0 1 0 0 1 1 0 0 1 1 0 1 0 1 1 0 0 1 0 0 0 1 0 1 1 1 1 1 1 1 1 1 1
    1       1    0 1 0 0 1 0 0 0 0 1 1 1 1 0 1 1 1 1 0 1 0 1 1 1 0 1 0 0 0 0 0 0 0 0 1 0 1 0 0 0 1 1 1 1 0 1 1 0 1 0 0
    1       0    1 1 1 1 0 0 1 0 1 0 0 0 0 1 1 0 1 0 0 1 1 0 0 1 1
   40       2    1 1 1 1 1 1 0 1 0 0 1 0 1 1 1 1 0 1 0 1 0 0 1 1 0 0 0 1 0 0 0 1 1 1 0 1 1 0 0 1 0 1 1 1 0 1 1 1 1 1 1
    1       1    0 1 0 0 1 1 0 0 0 1 1 1 0 0 0 0 1 0 1 0 0 1 1 1 0 1 0 0 0 0 0 0 0 1 1 0 1 1 0 0 1 1 1 1 0 1 1 0 1 0 0
    1       0    1 1 1 1 0 0 1 0 1 0 0 0 0 1 1 0 1 1 0 1 1 0 0 1 1
   41       2    0 0 1 1 1 1 0 1 0 0 1 0 1 1 1 1 0 1 0 1 0 0 1 1 0 0 0 1 0 1 0 0 1 0 0 1 0 0 0 1 0 1 1 1 0 0 1 1 1 1 1
    1       1    0 1 0 0 1 1 0 0 0 0 0 1 1 0 0 1 1 1 1 0 0 1 1 0 0 1 0 0 0 0 0 0 0 0 1 0 1 0 0 0 1 1 1 1 0 1 1 0 1 0 0
    1       0    1 1 1 1 0 0 1 0 1 0 0 0 0 1 1 0 0 1 0 1 1 0 0 1 1
   42       2    0 0 1 0 1 1 0 1 0 0 1 0 1 1 1 1 1 1 0 1 0 0 1 1 0 0 1 1 0 0 0 1 1 0 0 1 0 0 0 1 0 1 1 1 1 0 1 1 1 1 1
    1       1    0 1 0 0 1 1 0 0 0 1 1 1 0 0 1 1 1 1 1 1 0 1 1 1 0 1 0 0 0 0 0 0 0 0 0 0 1 0 0 0 1 1 1 1 0 1 1 0 1 0 0
    1       0    1 1 1 1 0 0 1 0 1 0 0 0 0 1 1 0 0 1 0 1 1 0 0 1 1
   43       2    0 0 1 0 1 1 0 1 0 0 1 0 1 1 1 1 1 1 0 1 0 0 1 1 0 0 1 1 0 1 0 1 1 0 0 1 1 1 0 1 0 0 1 1 1 0 0 1 1 1 1
    1       1    0 1 1 0 1 0 0 1 0 0 0 1 1 0 0 1 1 0 0 0 0 1 1 1 0 1 0 0 0 0 0 0 0 0 1 0 1 1 1 0 1 1 1 1 0 1 1 0 1 0 0
    1       0    1 1 1 1 0 0 0 0 1 0 0 0 0 1 1 0 1 1 0 1 1 0 0 1 1
   44       2    0 0 1 1 1 1 0 1 0 0 1 0 0 1 1 0 0 0 1 1 1 0 1 0 0 0 1 1 0 1 0 0 1 0 0 1 1 1 0 1 0 1 1 1 1 0 1 1 1 1 1
    1       1    0 1 0 0 1 0 0 0 0 0 0 0 0 0 0 1 1 1 1 1 0 1 1 0 0 1 0 0 0 0 0 0 0 0 0 0 1 0 0 0 0 1 1 1 0 1 0 1 1 1 1
    1       0    1 1 1 1 0 1 1 1 0 0 0 1 1 1 0 0 1 0 0 1 1 0 0 1 1
   45       2    0 0 1 1 1 1 0 1 0 0 1 0 0 1 1 1 1 0 1 1 0 0 1 1 0 0 1 1 0 0 0 1 1 0 0 1 1 1 0 1 0 1 1 1 1 0 1 1 1 1 1
    1       1    0 1 0 0 0 1 0 0 0 0 0 0 0 0 0 1 1 0 1 1 0 0 1 0 0 1 0 0 0 0 0 0 0 1 1 0 1 0 0 0 0 1 1 1 0 1 0 1 1 1 1
    1       0    1 1 1 1 0 1 1 1 1 0 0 1 1 1 1 0 0 0 0 1 1 0 0 1 1
   46       2    0 0 0 1 1 1 0 1 0 0 1 0 0 1 1 0 0 0 1 1 1 0 1 0 0 0 1 1 0 1 0 0 1 0 0 1 1 1 0 1 0 1 1 1 1 0 1 1 1 1 1
    1       1    0 1 0 0 1 0 0 0 0 0 0 0 0 0 0 1 1 1 1 1 0 1 1 0 0 1 0 0 0 0 0 0 0 0 0 0 0 0 1 0 0 1 1 1 0 1 0 1 1 1 1
    1       0    1 1 1 1 0 1 1 1 0 0 0 1 1 1 0 0 1 0 0 1 1 0 0 1 1
   47       2    0 0 0 1 1 1 0 1 0 0 1 0 0 1 1 0 0 0 1 1 1 0 1 0 0 0 1 1 0 1 0 0 1 0 0 1 1 1 0 1 0 1 1 1 1 0 1 1 1 1 1
    1       1    0 1 0 0 1 0 0 0 0 0 0 0 0 0 0 1 1 1 1 1 0 1 1 0 0 1 0 0 0 0 0 0 0 0 0 0 0 0 1 0 0 1 1 1 0 1 0 1 1 1 1
    1       0    1 1 1 1 0 1 1 1 0 0 0 1 1 1 0 0 1 0 0 1 1 0 0 1 1
   48       2    1 0 1 1 1 1 0 1 0 0 1 0 1 0 1 0 0 1 0 1 0 0 1 1 0 0 0 1 0 1 0 1 1 1 1 1 1 1 0 1 0 0 0 1 1 0 1 1 1 1 1
    1       1    0 1 0 0 0 1 0 0 0 0 0 1 1 1 0 1 1 0 0 0 0 0 1 1 0 1 0 0 0 0 0 0 0 1 0 0 1 1 0 0 0 1 1 1 0 1 0 1 0 1 1
    1       0    1 1 1 1 1 0 1 1 1 0 0 0 0 1 1 1 0 0 0 1 1 0 0 1 1
   49       2    0 1 1 1 1 1 0 1 0 0 1 0 1 1 1 0 0 1 1 1 1 0 1 1 0 0 1 1 0 1 0 0 0 0 0 1 1 1 0 1 0 1 1 0 1 0 1 1 1 1 1
    1       0    0 1 0 0 0 1 0 1 0 1 0 0 1 0 0 1 1 0 0 1 0 1 1 1 0 1 0 0 0 0 0 0 0 0 0 0 0 1 0 0 0 1 1 1 1 1 1 1 0 0 0
    1       0    1 0 1 1 1 1 1 1 0 0 0 0 1 1 1 0 0 1 0 1 1 0 0 1 1
   50       2    0 0 1 1 1 0 0 1 0 0 1 0 1 0 1 1 0 1 0 1 1 0 1 1 0 0 1 1 0 0 0 1 1 0 0 1 0 1 1 1 0 0 1 1 1 0 1 1 1 1 1
    1       1    0 0 0 1 0 0 0 0 0 1 0 1 1 0 1 1 0 0 0 0 1 1 0 0 0 1 0 0 0 0 0 0 0 0 0 0 1 1 0 0 1 1 1 1 0 1 1 1 0 1 1
    1       0    1 1 1 0 1 1 1 1 0 0 0 0 0 1 1 0 0 1 0 1 1 0 0 1 1
   51       2    0 0 1 1 1 1 0 1 0 0 1 0 1 1 0 1 1 1 0 1 0 0 1 1 0 0 0 1 0 0 0 1 1 0 0 1 0 1 0 1 0 0 1 1 1 0 1 1 1 1 1
    1       1    0 0 1 0 0 0 1 0 0 0 1 1 0 0 0 1 1 0 0 1 0 1 1 0 0 1 0 0 0 0 0 0 0 0 1 0 0 0 0 0 1 1 1 1 0 1 1 1 0 1 0
    1       0    1 1 1 0 1 1 1 1 1 0 0 0 0 1 1 0 0 1 0 1 1 0 0 1 1
   52       2    1 0 1 1 1 0 0 1 0 0 1 0 1 1 1 0 1 1 0 1 1 0 1 1 0 0 0 1 0 0 0 0 1 0 1 1 1 0 0 1 0 1 1 1 1 0 1 1 1 1 1
    1       1    0 1 1 1 0 0 1 0 0 0 0 1 1 0 0 1 1 0 1 1 0 0 1 0 0 1 0 0 0 0 0 1 0 0 0 0 0 1 0 0 1 1 1 1 0 1 1 1 0 1 0
    1       0    1 1 1 0 1 0 1 0 1 0 0 0 0 1 1 0 1 0 0 1 1 0 0 1 1
   53       2    0 0 1 1 1 1 0 1 0 0 1 0 0 0 1 0 1 0 1 1 0 0 1 1 0 1 0 1 0 0 0 1 1 0 0 1 0 1 0 1 0 1 1 1 1 0 1 1 1 1 1
    1       1    0 1 1 0 0 1 0 0 0 1 0 1 1 0 0 1 1 0 1 0 0 0 1 0 0 1 0 0 0 0 0 0 0 0 1 0 1 1 0 0 1 1 1 1 0 1 1 1 0 0 0
    1       0    1 1 1 0 1 1 0 1 0 0 0 0 1 1 1 0 0 1 0 1 1 0 0 1 1
   54       2    0 1 1 0 1 1 0 1 0 0 1 0 0 1 1 0 0 1 0 1 0 0 1 1 0 1 0 1 0 1 0 1 1 0 0 1 1 0 0 1 0 1 1 1 1 1 1 1 1 1 1
    1       1    0 1 0 0 1 1 0 0 0 1 0 1 1 0 0 1 1 1 1 0 0 0 1 0 0 1 0 0 0 0 0 0 0 0 1 0 1 0 0 0 1 1 1 1 0 1 1 0 1 0 0
    1       0    1 1 1 1 0 0 1 1 1 0 0 0 1 1 1 0 0 1 0 1 1 0 0 1 1
   8800000.00000000        1618033.00000000       0.000000000000000E+000
  1.136363636363636E-007   3794460.00000000        2540149.00000000     
           1          12          43
   437924.000000000        5414370.00000000        8143376.00000000     
   2192297.00000000        4162938.00000000        4449485.00000000     
   1039624.00000000        7100401.00000000        3020565.00000000     
   225669.000000000        67124.0000000000        3794460.00000000     
   27251.0000000000        7361899.00000000        3034756.00000000     
   8139816.00000000        2177184.00000000        6875483.00000000     
   5699281.00000000        3704877.00000000        2357675.00000000     
   1719544.00000000        1581982.00000000        5213346.00000000     
   3320489.00000000        3022615.00000000        8365686.00000000     
   6818212.00000000        6682913.00000000        1728827.00000000     
   4634506.00000000        3754908.00000000        8605128.00000000     
   5481665.00000000        2394447.00000000        3922538.00000000     
   8367571.00000000        7969575.00000000        3792960.00000000     
   8430415.00000000        7178317.00000000        1580346.00000000     
   4754960.00000000        6220724.00000000        4217543.00000000     
   2022298.00000000        7930454.00000000        4441148.00000000     
   8359907.00000000        1705935.00000000        5380089.00000000     
   4118445.00000000        1668194.00000000        2354426.00000000     
   1049160.00000000     
   8800000.00000000        1618033.00000000       0.000000000000000E+000
  1.136363636363636E-007   1609235.00000000        2129117.00000000     
           1          18          49
   378247.000000000        1688728.00000000        3462915.00000000     
   1597457.00000000        8235357.00000000        5068252.00000000     
   3432562.00000000        7362726.00000000        2257834.00000000     
   7507300.00000000        7163477.00000000        4208056.00000000     
   6053809.00000000        5783874.00000000        4728131.00000000     
   4281567.00000000        7503178.00000000        1609235.00000000     
   1700860.00000000        1509178.00000000        2436336.00000000     
   8138578.00000000        369145.000000000        5844950.00000000     
   6183115.00000000        3141666.00000000        6582800.00000000     
   141470.000000000        7406949.00000000        2538296.00000000     
   5249426.00000000        5093158.00000000        1242090.00000000     
   5563616.00000000        202114.000000000        4847410.00000000     
   1959713.00000000        7837008.00000000        1088024.00000000     
   2483549.00000000        2744663.00000000        4867242.00000000     
   1119292.00000000        3483213.00000000        2980470.00000000     
   6356762.00000000        1529533.00000000        8719351.00000000     
   4780308.00000000        6200091.00000000        6229261.00000000     
   5816815.00000000        6549366.00000000        2210453.00000000     
   3016518.00000000     
   8800000.00000000        1618033.00000000       0.000000000000000E+000
  1.136363636363636E-007   7459178.00000000        8322469.00000000     
           1          18          49
   3519165.00000000        8649077.00000000        8452680.00000000     
   3980860.00000000        4188193.00000000        7038660.00000000     
   5801016.00000000        6129109.00000000        4024368.00000000     
   3748754.00000000        1170688.00000000        7673342.00000000     
   974691.000000000        7352320.00000000        3718991.00000000     
   4269720.00000000        3791811.00000000        7459178.00000000     
   2804952.00000000        8650521.00000000        5133734.00000000     
   1831805.00000000        4179424.00000000        5059572.00000000     
   6489102.00000000        2487331.00000000        1942109.00000000     
   2829914.00000000        7347307.00000000        386916.000000000     
   4656075.00000000        6955744.00000000        8161893.00000000     
   6034482.00000000        6205870.00000000        3632548.00000000     
   8553454.00000000        3296747.00000000        6588783.00000000     
   8248594.00000000        6818898.00000000        4428881.00000000     
   7555953.00000000        5648178.00000000        3474271.00000000     
   2413999.00000000        2859070.00000000        1823539.00000000     
   5625724.00000000        3205011.00000000        2633834.00000000     
   3606772.00000000        4391936.00000000        104503.000000000     
   5457594.00000000     
