          70          54   1.00000000000000     
    1       2    0 0 1 1 1 1 0 1 0 0 1 0 1 0 1 1 0 1 0 1 1 0 1 1 0 0 1 1 0 0 0 1 1 0 0 1 1 1 0 1 0 0 1 1 1 0 0 1 1 1 1
    1       1    0 0 0 0 0 1 0 0 0 0 1 1 0 0 0 1 0 0 1 0 0 1 0 0 0 1 0 0 0 0 0 0 0 1 0 0 1 1 0 0 1 1 1 1 0 1 1 1 1 1 1
    1       0    1 1 1 0 1 0 1 1 0 0 0 1 0 1 1 0 0 1 0 1 1 0 0 1 1
    2       2    0 0 1 1 1 1 0 1 0 0 1 0 1 0 1 0 0 1 0 1 1 0 0 1 0 0 1 1 0 1 0 0 1 0 1 1 1 0 1 1 0 1 1 1 1 0 1 1 1 1 1
    1       1    0 0 0 1 1 1 0 0 0 0 1 1 1 0 1 1 0 0 1 0 0 1 0 1 0 1 0 0 0 0 0 0 0 0 0 0 1 0 0 0 1 1 1 1 0 1 1 1 1 1 1
    1       0    1 1 1 0 1 0 1 0 0 0 0 0 0 1 1 0 0 1 0 1 1 0 0 1 1
    3       2    0 0 1 0 1 1 0 1 0 0 1 0 1 1 1 1 0 1 0 1 0 0 1 1 0 0 0 1 0 1 0 1 1 0 0 1 1 0 0 1 0 0 1 1 1 0 0 1 1 1 1
    1       1    0 0 0 0 0 1 0 0 0 0 1 1 0 0 0 1 1 1 0 1 1 0 1 1 0 1 0 0 0 0 0 0 0 0 1 0 1 0 0 0 1 1 1 1 0 1 1 1 1 0 0
    1       0    1 1 1 0 1 1 1 0 1 0 0 0 0 1 1 0 0 0 0 1 1 0 0 1 1
    4       2    0 0 1 1 1 1 0 1 0 0 1 0 1 0 1 0 0 1 1 1 1 0 0 1 0 0 0 1 0 0 0 0 1 0 0 1 0 0 0 1 0 1 1 1 1 0 1 1 1 1 1
    1       1    0 0 0 1 0 1 0 0 0 0 0 0 1 0 0 1 1 0 0 1 0 0 0 1 0 1 0 0 0 0 0 0 0 0 0 0 1 0 1 0 1 1 1 1 0 1 1 1 0 1 1
    1       0    1 1 1 0 1 1 1 0 0 0 0 0 1 1 1 0 0 0 0 1 1 0 0 1 1
    5       2    0 0 1 1 1 1 0 1 0 0 1 0 1 0 1 1 1 1 1 1 1 0 1 1 0 0 0 1 0 0 0 0 1 0 0 1 1 0 0 1 0 0 1 1 1 0 0 1 1 1 1
    1       1    0 0 0 1 0 1 0 1 0 0 0 1 0 0 0 1 1 0 0 1 0 1 1 0 0 1 0 0 0 0 0 0 0 0 0 0 1 0 0 0 1 1 1 1 0 1 1 1 0 1 0
    1       0    1 1 1 0 1 1 1 1 0 0 0 0 0 1 1 1 1 0 0 1 1 0 0 1 1
    6       2    0 0 1 1 1 1 0 1 0 0 1 0 1 0 1 0 0 1 1 1 0 0 1 1 0 0 0 1 0 0 0 0 1 0 0 1 0 0 0 1 0 0 1 1 1 0 0 1 1 1 1
    1       1    0 0 0 1 0 1 0 0 0 0 0 1 0 0 0 1 0 0 0 1 1 0 1 0 0 1 0 0 0 0 0 0 0 0 1 0 1 0 0 0 1 1 1 1 0 1 1 1 0 1 0
    1       0    1 1 1 0 1 1 1 1 0 0 0 0 0 1 1 0 0 0 0 1 1 0 0 1 1
    7       2    0 0 1 1 1 1 0 1 0 0 1 0 1 0 1 1 0 1 1 1 1 0 1 1 0 0 0 1 0 0 0 0 1 0 0 1 0 1 0 1 0 0 1 1 1 0 0 1 1 1 1
    1       1    0 0 0 1 0 1 0 0 0 0 0 1 0 0 1 1 0 0 0 1 0 0 0 0 0 1 0 0 0 0 0 0 0 0 1 0 1 1 0 0 1 1 1 1 0 1 1 1 0 1 0
    1       0    1 1 1 0 1 1 1 1 1 0 1 0 0 1 1 0 0 0 0 1 1 0 0 1 1
    8       2    0 0 1 1 1 1 0 1 0 0 1 0 1 0 1 0 0 1 1 1 0 0 1 1 0 0 0 1 0 0 0 0 1 0 0 1 0 0 0 1 0 0 1 1 1 0 0 1 1 1 1
    1       1    0 0 0 1 0 1 0 0 0 0 0 1 0 0 1 1 0 0 1 1 0 0 1 0 0 1 0 0 0 0 0 0 0 0 1 0 1 1 0 0 1 1 1 1 0 1 1 1 0 1 0
    1       0    1 1 1 0 1 1 1 1 0 0 1 0 0 1 1 0 0 0 0 1 1 0 0 1 1
    9       2    0 0 1 1 1 1 0 1 0 0 1 0 1 0 0 1 1 1 0 1 0 0 1 1 0 0 0 1 0 0 0 0 1 1 0 1 0 1 0 1 0 0 1 1 1 0 1 1 1 1 1
    1       1    0 0 0 1 0 1 0 1 0 0 0 1 0 0 0 1 1 0 0 1 0 1 0 0 0 1 0 0 0 0 0 0 0 0 0 0 1 0 0 0 1 1 1 1 0 1 1 1 0 1 0
    1       0    1 1 1 0 1 1 1 1 1 0 0 0 0 1 1 1 0 0 0 1 1 0 0 1 1
   10       2    0 0 1 1 1 1 0 1 0 0 1 0 1 0 1 1 0 1 1 1 1 0 1 1 1 0 0 1 0 0 0 0 1 1 0 1 1 0 0 1 0 0 1 1 1 0 0 1 1 1 1
    1       1    0 0 0 1 0 1 0 1 0 0 0 1 0 0 0 1 1 0 0 1 0 0 1 0 0 1 0 0 0 0 0 0 0 0 0 0 1 1 0 0 1 1 1 1 0 1 1 1 0 1 0
    1       0    1 1 1 0 1 1 1 1 1 0 1 0 0 1 1 0 0 0 0 1 1 0 0 1 1
   11       2    0 0 1 1 1 1 0 1 0 0 1 0 1 0 1 1 1 1 1 1 1 0 1 1 0 0 0 1 0 0 0 0 1 0 0 1 0 1 0 1 0 0 1 1 1 0 0 1 1 1 1
    1       1    0 0 0 1 0 1 0 0 0 0 0 1 0 0 1 1 0 1 0 1 0 1 0 0 0 1 0 0 0 0 0 0 0 0 1 0 1 0 0 0 1 1 1 1 0 1 1 1 0 1 0
    1       0    1 1 1 0 1 1 1 1 0 0 0 0 0 1 1 1 1 0 0 1 1 0 0 1 1
   12       2    1 0 1 0 1 1 0 1 0 0 1 0 1 0 1 0 0 1 0 1 0 0 1 1 0 0 1 1 0 1 0 1 1 1 0 1 1 1 0 1 0 0 1 1 0 0 1 1 1 1 1
    1       1    0 1 0 1 1 0 0 0 0 0 0 1 1 0 0 1 1 0 0 0 0 0 1 1 0 1 0 0 0 0 0 0 0 0 0 0 1 0 0 0 1 1 1 1 0 1 1 1 0 1 0
    1       0    1 1 1 0 1 0 1 1 1 0 0 0 1 1 1 0 0 0 0 1 1 0 0 1 1
   13       2    0 0 1 1 1 1 0 1 0 0 1 0 1 0 1 0 0 1 0 1 0 0 1 0 0 0 1 1 0 1 0 1 0 1 0 1 1 1 0 1 0 0 1 1 1 0 1 1 1 1 1
    1       1    0 1 0 1 1 0 1 0 0 0 0 1 1 0 0 1 0 1 1 0 1 0 1 1 0 1 0 0 0 0 0 0 0 0 0 0 1 0 0 0 1 1 1 1 0 1 1 1 0 1 0
    1       0    1 1 1 0 1 0 1 1 0 0 0 0 1 1 1 0 0 0 0 1 1 0 0 1 1
   14       2    0 0 1 1 1 1 0 1 0 0 1 0 1 0 1 0 0 1 0 1 0 0 1 0 0 0 1 1 0 1 0 1 0 1 0 1 1 1 0 1 0 0 1 1 1 0 1 1 1 1 1
    1       1    0 1 0 1 1 0 1 0 0 0 0 1 1 0 0 1 0 1 1 0 1 0 1 0 0 1 0 0 0 0 0 0 0 0 0 0 1 0 0 0 1 1 1 1 0 1 1 1 0 1 0
    1       0    1 1 1 0 1 0 1 1 0 0 0 0 1 1 1 0 0 0 0 1 1 0 0 1 1
   15       2    0 0 1 1 1 1 0 1 0 0 1 0 1 0 1 0 0 1 0 1 0 0 1 0 0 0 1 1 0 1 0 0 0 1 0 1 1 1 0 0 0 0 1 1 1 0 1 1 1 1 1
    1       1    0 1 0 1 1 1 1 0 0 0 0 1 1 0 0 1 0 1 1 0 1 0 1 1 0 1 0 0 0 0 0 0 0 0 0 0 1 0 0 0 1 1 1 1 0 1 1 1 0 1 0
    1       0    1 1 1 0 1 0 1 1 0 0 0 0 1 1 1 0 0 0 0 1 1 0 0 1 1
   16       2    1 0 1 1 1 1 0 1 0 0 1 0 1 0 1 0 0 1 0 1 1 0 1 1 0 0 1 1 0 1 0 1 1 1 0 1 1 1 0 1 0 0 1 1 1 0 1 1 1 1 1
    1       1    0 1 0 1 1 1 0 0 0 0 0 1 1 0 0 1 1 0 0 0 0 0 1 1 0 1 0 0 0 0 0 0 0 0 0 0 1 1 0 0 1 1 1 1 0 1 1 1 0 1 0
    1       0    1 1 1 0 1 0 1 1 1 0 0 0 1 0 1 0 0 0 0 1 1 0 0 1 1
   17       2    0 0 1 1 1 1 0 1 0 0 1 0 1 0 1 1 0 1 0 1 1 0 1 1 0 0 0 1 0 1 0 0 1 1 1 1 1 0 0 1 0 1 1 1 1 0 1 1 1 1 1
    1       1    0 0 1 1 1 1 0 0 0 0 1 1 1 1 1 0 1 0 1 0 0 1 0 1 0 1 0 0 0 0 0 0 0 0 0 0 1 0 0 0 1 1 1 1 0 1 1 0 1 0 1
    1       0    1 1 1 1 0 0 1 0 1 0 0 0 0 1 1 0 0 1 0 1 1 0 0 1 1
   18       2    0 1 1 1 1 1 0 1 0 0 1 0 1 1 1 1 1 1 0 1 0 0 1 1 0 0 0 1 0 1 0 0 1 1 1 1 1 0 0 1 0 1 1 1 0 0 1 1 1 1 1
    1       1    0 0 1 1 1 1 0 0 0 0 1 1 0 0 1 0 1 1 1 0 0 1 1 1 0 1 0 0 0 0 0 0 0 0 0 0 1 0 0 0 1 1 1 1 0 1 1 0 1 0 1
    1       0    1 1 1 1 0 0 1 0 0 0 0 0 0 1 1 0 0 1 0 1 1 0 0 1 1
   19       2    0 1 1 1 1 1 0 1 0 0 1 0 1 0 1 1 1 1 0 1 0 0 1 1 0 1 0 1 0 1 0 0 1 1 1 1 1 0 0 1 0 1 1 1 0 0 1 1 1 1 1
    1       1    0 0 1 1 1 1 0 0 0 0 1 1 1 0 1 0 1 0 1 0 0 1 0 1 0 1 0 0 0 0 0 0 0 0 0 0 1 0 0 0 1 1 1 1 0 1 1 0 1 0 1
    1       0    1 1 1 1 0 0 1 0 1 0 0 0 0 1 1 0 0 1 0 1 1 0 0 1 1
   20       2    0 0 1 1 1 1 0 1 0 0 1 0 0 0 0 1 0 1 1 1 0 1 1 0 0 0 1 1 0 0 0 1 1 0 0 1 1 1 0 1 0 1 0 0 1 0 1 1 1 1 1
    1       1    0 0 1 0 0 1 0 0 0 0 0 0 1 0 0 1 0 0 1 0 0 1 0 1 0 1 0 0 0 0 0 1 0 0 1 0 1 0 0 0 0 1 1 1 0 1 1 0 0 1 1
    1       0    1 1 1 1 0 1 0 1 1 0 0 0 0 1 1 0 0 0 0 1 1 0 0 1 1
   21       2    1 0 1 1 1 1 0 1 0 0 1 0 1 0 1 0 1 1 0 1 0 0 1 1 0 0 0 1 0 0 0 1 1 1 0 1 1 1 0 1 0 0 1 1 1 0 1 1 1 1 1
    1       1    0 1 1 1 1 1 0 0 0 0 0 1 1 0 0 1 1 0 0 0 0 1 1 0 0 1 0 0 0 0 0 0 0 0 0 0 1 1 0 0 1 1 1 1 0 1 1 1 0 1 0
    1       0    1 1 1 0 1 0 0 1 1 0 0 0 0 1 1 0 0 0 0 1 1 0 0 1 1
   22       2    0 1 1 1 1 1 0 1 0 0 1 0 1 1 1 1 1 1 0 1 0 0 1 1 0 0 1 1 0 0 0 0 1 1 0 1 1 0 0 1 0 1 1 1 0 0 1 1 1 1 1
    1       1    0 1 0 0 1 1 0 0 0 0 1 1 0 0 1 1 1 1 1 0 0 1 1 1 0 1 0 0 0 0 0 0 0 0 1 0 1 0 0 0 1 1 1 1 0 1 1 0 1 0 0
    1       0    1 1 1 1 0 0 1 0 1 0 0 0 0 1 1 0 0 1 0 1 1 0 0 1 1
   23       2    0 1 1 0 1 1 0 1 0 0 1 0 1 1 1 1 0 1 0 1 0 0 1 1 0 0 0 1 0 1 0 1 1 0 0 1 1 0 0 1 0 1 1 1 1 1 1 1 1 1 1
    1       1    0 1 0 0 1 1 0 0 0 1 1 1 1 0 0 1 1 1 1 1 0 1 1 1 0 1 0 0 0 0 0 0 0 0 1 0 1 0 0 0 1 1 1 1 0 1 1 0 1 0 0
    1       0    1 1 1 1 0 0 1 0 1 0 0 0 0 1 1 0 0 1 0 1 1 0 0 1 1
   24       2    0 1 1 1 1 1 0 1 0 0 1 0 1 1 1 1 0 1 0 1 0 0 1 1 0 0 0 1 0 1 0 0 1 0 0 1 1 0 0 1 0 1 1 1 0 0 1 1 1 1 1
    1       1    0 1 0 0 1 1 0 0 0 0 1 1 1 0 0 1 1 1 1 1 0 1 1 1 0 1 0 0 0 0 0 0 0 0 1 0 1 0 0 0 1 1 1 1 0 1 1 0 1 0 0
    1       0    1 1 1 1 0 0 1 0 1 0 0 0 0 1 1 0 0 1 0 1 1 0 0 1 1
   25       2    0 1 1 0 1 1 0 1 0 0 1 0 1 1 0 1 1 1 0 1 0 0 1 1 0 0 0 1 0 1 0 1 1 0 0 1 1 0 0 1 0 1 1 1 1 1 1 1 1 1 1
    1       1    0 1 0 0 1 1 0 0 0 1 1 1 1 0 0 1 1 1 1 1 0 1 1 1 0 1 0 0 0 0 0 0 0 0 1 0 1 0 0 0 1 1 1 1 0 1 1 0 1 0 0
    1       0    1 1 1 1 0 0 1 0 1 0 0 0 0 1 1 0 0 1 0 1 1 0 0 1 1
   26       2    0 1 1 1 1 1 0 1 0 0 1 0 1 0 1 1 1 1 0 1 0 0 1 1 0 0 0 1 0 1 0 1 1 0 0 1 1 0 0 1 0 1 1 1 1 1 1 1 1 1 1
    1       1    0 1 0 0 1 1 0 0 0 1 1 1 1 0 0 1 1 1 1 1 0 1 1 1 0 1 0 0 0 0 0 0 0 0 1 0 1 0 0 0 1 1 1 1 0 1 1 0 1 0 0
    1       0    1 1 1 1 0 0 1 0 1 0 0 0 0 1 1 0 0 1 0 1 1 0 0 1 1
   27       2    0 1 1 0 1 1 0 1 0 0 1 0 1 1 1 1 0 1 0 1 0 0 1 1 0 0 0 1 0 1 0 0 0 0 0 1 1 0 0 1 0 1 1 1 0 0 1 1 1 1 1
    1       1    0 1 0 0 1 1 0 0 0 0 1 1 1 0 0 1 1 1 1 1 0 1 1 1 0 1 0 0 0 0 0 0 0 0 1 0 1 0 0 0 1 1 1 1 0 1 1 0 1 0 0
    1       0    1 1 1 1 0 0 1 0 1 0 0 0 0 1 1 0 0 1 0 1 1 0 0 1 1
   28       2    0 1 1 1 1 0 0 1 0 0 1 0 0 1 0 1 1 1 1 1 0 0 1 1 0 0 1 1 0 0 0 1 1 0 0 1 1 0 0 1 0 1 0 1 1 0 1 1 1 1 1
    1       1    0 0 1 0 0 1 0 0 0 0 0 0 0 0 0 0 1 1 1 1 0 1 1 1 0 1 0 0 0 0 0 1 0 1 0 0 1 0 0 0 0 1 1 1 0 1 1 0 0 0 1
    1       0    1 1 1 1 0 1 1 1 0 0 0 0 1 1 1 0 0 0 0 1 1 0 0 1 1
   29       2    0 1 1 1 1 0 0 1 0 0 1 0 1 1 1 1 0 1 0 1 0 0 1 1 0 0 1 1 0 0 0 0 1 0 0 1 1 1 0 1 0 1 0 1 1 0 1 1 1 1 1
    1       1    0 1 0 0 0 1 0 0 0 0 1 0 1 0 0 1 0 0 1 0 0 1 1 1 0 1 0 0 0 0 0 0 0 0 1 0 1 0 0 0 1 1 1 1 0 1 1 0 0 0 0
    1       0    1 1 1 1 0 1 1 0 1 0 0 0 0 1 1 0 0 1 0 1 1 0 0 1 1
   30       2    0 1 1 1 1 0 0 1 0 0 1 0 1 1 1 1 1 1 0 1 0 0 1 1 0 0 1 1 0 0 0 0 1 0 0 1 1 0 0 1 0 1 0 1 0 0 1 1 1 1 1
    1       1    0 1 0 0 1 1 0 0 0 0 1 0 0 0 1 1 0 1 1 0 0 1 1 1 0 1 0 0 0 0 0 0 0 0 1 0 1 0 0 0 1 1 1 1 0 1 1 0 0 0 0
    1       0    1 1 1 1 0 1 1 0 1 0 0 0 0 1 1 0 0 1 0 1 1 0 0 1 1
   31       2    0 0 1 1 1 1 0 1 0 0 1 0 0 1 1 0 0 0 1 1 1 0 1 0 0 0 1 1 0 1 0 0 1 0 0 1 1 1 0 1 0 1 1 1 1 0 1 1 1 1 1
    1       1    0 1 0 0 1 0 0 0 0 0 0 0 0 0 0 1 1 1 1 1 0 1 1 0 0 1 0 0 0 0 0 0 0 0 0 0 1 0 0 0 0 1 1 1 0 1 0 1 1 1 1
    1       0    1 1 1 1 0 1 1 1 0 0 0 1 1 1 0 0 1 0 0 1 1 0 0 1 1
   32       2    0 0 1 1 1 1 0 1 0 0 1 0 0 1 1 1 1 0 1 1 0 0 1 1 0 0 1 1 0 0 0 1 1 0 0 1 1 1 0 1 0 1 1 1 1 0 1 1 1 1 1
    1       1    0 1 0 0 0 1 0 0 0 0 0 0 0 0 0 1 1 0 1 1 0 0 1 0 0 1 0 0 0 0 0 0 0 1 1 0 1 0 0 0 0 1 1 1 0 1 0 1 1 1 1
    1       0    1 1 1 1 0 1 1 1 1 0 0 1 1 1 1 0 0 0 0 1 1 0 0 1 1
   33       2    0 0 1 1 1 1 0 1 0 0 1 0 0 1 1 0 0 0 0 1 1 0 1 0 0 0 1 1 0 1 0 0 1 0 0 1 1 1 0 1 0 1 1 0 1 0 1 1 1 1 1
    1       1    0 1 0 0 1 0 0 0 1 0 0 0 1 0 0 1 1 1 0 0 0 1 1 1 0 1 0 0 0 0 0 0 0 0 0 0 1 0 1 0 0 1 1 1 0 1 0 1 1 1 1
    1       0    1 1 1 1 0 1 1 1 1 0 0 1 1 1 0 0 0 0 0 1 1 0 0 1 1
   34       2    0 0 1 1 1 1 0 1 0 0 1 0 0 1 1 1 1 0 1 1 0 0 1 1 0 0 1 1 0 0 0 1 1 0 0 1 1 1 0 1 0 1 1 1 1 0 1 1 1 1 1
    1       1    0 1 0 0 0 1 0 0 0 0 0 0 0 0 0 1 1 0 1 1 1 0 1 0 0 1 0 0 0 0 0 0 0 1 1 0 1 0 0 0 0 1 1 1 0 1 0 1 1 1 1
    1       0    1 1 1 1 0 1 1 1 1 0 0 1 1 0 1 0 0 0 0 1 1 0 0 1 1
   35       2    0 0 1 1 1 1 0 1 0 0 1 0 0 1 1 1 0 0 1 1 0 0 1 0 0 0 1 1 0 1 0 1 1 0 0 1 1 1 0 1 0 1 1 1 1 0 1 1 1 1 1
    1       1    0 1 0 0 0 0 0 0 0 0 0 0 0 0 0 1 1 0 1 1 0 0 1 0 0 1 0 0 0 0 0 0 0 0 1 0 1 0 0 0 0 1 1 1 0 1 0 1 1 1 1
    1       0    1 1 1 1 0 1 1 1 0 0 0 1 1 1 1 0 1 0 0 1 1 0 0 1 1
   36       2    0 1 1 1 1 1 0 1 0 0 1 0 1 1 1 0 0 1 1 1 1 0 1 1 0 0 1 1 0 1 0 0 0 0 0 1 1 1 0 1 0 1 1 0 1 0 1 1 1 1 1
    1       0    0 1 0 0 0 1 0 1 0 1 0 0 1 0 0 1 1 0 0 1 0 1 1 1 0 1 0 0 0 0 0 0 0 0 0 0 0 1 0 0 0 1 1 1 1 1 1 1 0 0 0
    1       0    1 0 1 1 1 1 1 1 0 0 0 0 1 1 1 0 0 1 0 1 1 0 0 1 1
   37       2    0 1 1 1 1 1 0 1 0 0 1 0 0 1 1 0 0 1 1 1 1 0 1 1 0 0 1 1 0 1 0 0 1 0 0 1 1 1 0 1 0 1 0 0 1 0 1 1 1 1 1
    1       0    0 1 0 0 0 1 0 0 0 0 0 0 0 0 0 1 1 1 0 1 0 1 0 1 0 1 0 0 0 0 0 0 0 0 0 0 0 0 0 0 0 1 1 1 1 1 1 1 0 0 0
    1       0    1 0 1 1 1 1 1 1 0 0 0 0 1 1 1 0 0 1 0 1 1 0 0 1 1
   38       2    0 0 1 1 1 1 0 1 0 0 1 0 1 0 1 1 0 1 0 1 0 1 1 1 0 0 0 1 0 0 0 0 1 0 0 1 0 0 0 1 0 0 1 1 1 0 0 1 1 1 1
    1       1    0 0 0 1 0 1 0 0 0 0 0 1 0 1 0 1 0 0 1 0 0 0 0 0 0 1 0 0 0 0 0 0 0 1 0 0 1 1 0 0 1 1 1 1 0 1 1 1 1 1 1
    1       0    1 1 1 0 1 0 1 1 0 1 0 1 1 1 1 0 0 0 0 1 1 0 0 1 1
   39       2    0 0 1 1 1 0 0 1 0 0 1 0 1 0 1 1 0 1 0 1 1 0 1 1 0 0 1 1 0 0 0 1 1 0 0 1 0 1 1 1 0 0 1 1 1 0 1 1 1 1 1
    1       1    0 0 0 1 0 0 0 0 0 1 0 1 1 0 1 1 0 0 0 0 1 1 0 0 0 1 0 0 0 0 0 0 0 0 0 0 1 1 0 0 1 1 1 1 0 1 1 1 0 1 1
    1       0    1 1 1 0 1 1 1 1 0 0 0 0 0 1 1 0 0 1 0 1 1 0 0 1 1
   40       2    0 0 1 1 1 1 0 1 0 0 1 0 1 0 1 1 0 1 0 1 1 0 1 1 0 0 0 1 0 0 0 0 1 1 0 1 0 1 0 1 0 0 1 1 1 0 1 1 1 1 1
    1       1    0 0 0 1 0 1 0 0 0 0 0 1 0 0 1 1 1 0 0 0 0 1 0 0 0 1 0 0 0 0 0 0 0 0 0 0 1 1 0 0 1 1 1 1 0 1 1 1 0 1 1
    1       0    1 1 1 0 1 1 1 1 1 0 0 0 0 1 1 0 0 0 0 1 1 0 0 1 1
   41       2    0 0 1 1 1 0 0 1 0 0 1 0 1 0 1 1 0 1 0 1 1 0 1 1 0 0 0 1 0 0 0 1 1 0 0 1 0 1 0 1 0 0 1 1 1 0 1 1 1 1 1
    1       1    0 0 0 1 0 1 0 0 0 0 0 1 1 0 1 1 0 0 0 0 1 1 0 0 0 1 0 0 0 0 0 0 0 0 0 0 1 1 0 0 1 1 1 1 0 1 1 1 0 1 1
    1       0    1 1 1 0 1 1 1 1 0 0 0 0 0 1 1 0 0 0 0 1 1 0 0 1 1
   42       2    0 0 0 1 1 1 0 1 0 0 1 0 1 0 1 1 1 1 1 1 1 0 1 1 0 0 0 1 0 0 0 0 1 0 0 1 1 0 0 1 0 0 1 1 1 0 0 1 1 1 1
    1       1    0 0 0 1 1 1 0 1 0 0 0 1 1 0 0 1 1 0 0 1 0 1 0 0 0 1 0 0 0 0 0 0 0 0 0 0 1 0 0 0 1 1 1 1 0 1 1 1 0 1 1
    1       0    1 1 1 0 1 1 1 1 0 0 0 1 0 1 1 1 1 0 0 1 1 0 0 1 1
   43       2    0 0 1 1 1 1 0 1 0 0 1 0 1 0 1 1 0 1 0 1 1 0 1 1 0 0 0 1 0 0 0 1 1 0 0 1 0 1 0 1 0 0 1 1 1 0 0 1 1 1 1
    1       1    0 0 0 1 0 1 0 0 0 0 0 1 1 0 1 1 0 0 0 0 0 1 0 0 0 1 0 0 0 0 0 0 0 0 0 0 1 1 1 0 1 1 1 1 0 1 1 1 0 1 1
    1       0    1 1 1 0 1 1 1 1 0 0 0 0 0 1 1 0 0 0 0 1 1 0 0 1 1
   44       2    0 0 1 1 1 1 0 1 0 0 1 0 1 0 1 1 0 1 0 1 0 0 1 1 0 0 0 1 0 0 0 0 1 1 0 1 0 0 0 1 0 0 1 1 1 0 1 1 1 1 1
    1       1    0 0 0 1 0 1 0 0 0 0 0 1 0 0 0 1 1 0 0 0 1 1 1 0 0 1 0 0 0 0 0 0 0 0 0 0 1 0 0 0 1 1 1 1 0 1 1 1 0 1 1
    1       0    1 1 1 0 1 1 1 1 0 0 0 0 0 1 1 0 0 0 0 1 1 0 0 1 1
   45       2    0 0 1 1 1 1 0 1 0 0 1 0 1 0 1 1 0 1 0 1 0 0 1 1 0 0 0 1 0 0 0 0 1 1 0 1 0 1 0 1 0 0 1 1 1 0 1 1 1 1 1
    1       1    0 0 0 1 0 1 0 0 0 0 0 1 0 0 0 1 1 0 0 0 0 1 0 0 0 1 0 0 0 0 0 0 0 0 0 0 1 0 0 0 1 1 1 1 0 1 1 1 0 1 1
    1       0    1 1 1 0 1 1 1 1 1 0 0 0 0 1 1 0 0 0 0 1 1 0 0 1 1
   46       2    0 0 1 1 1 1 0 1 0 0 1 0 1 0 1 1 0 1 0 1 1 0 1 1 0 0 0 1 0 0 0 0 1 1 0 1 0 0 0 1 0 0 1 1 1 0 1 1 1 1 1
    1       1    0 0 0 1 0 1 0 0 0 0 0 1 1 0 1 1 1 0 0 0 1 1 1 0 0 1 0 0 0 0 0 0 0 0 0 0 1 1 0 1 1 1 1 1 0 1 1 1 0 1 1
    1       0    1 1 1 0 1 1 1 1 0 0 0 0 0 1 1 0 0 0 0 1 1 0 0 1 1
   47       2    0 0 1 1 1 1 0 1 0 0 1 0 1 0 1 1 0 1 0 1 1 0 1 0 0 0 1 1 0 1 0 0 1 0 0 1 0 1 0 1 0 1 0 1 1 0 1 1 1 1 1
    1       1    0 0 0 1 0 0 0 0 0 1 0 0 1 1 0 1 1 0 0 0 1 1 1 0 0 1 0 0 0 0 0 0 0 0 0 0 1 0 0 0 0 1 1 1 0 1 1 1 0 1 1
    1       0    1 1 1 0 1 1 1 1 1 0 0 1 0 1 1 0 0 1 0 1 1 0 0 1 1
   48       2    0 0 1 1 1 1 0 1 0 0 1 0 1 0 1 1 0 1 0 1 1 0 1 1 0 0 0 1 0 0 0 0 1 0 0 1 0 1 0 1 0 0 1 1 1 0 1 1 1 1 1
    1       1    0 0 0 1 0 1 0 0 0 0 0 1 1 0 1 1 0 0 0 0 0 1 0 0 0 1 0 0 0 0 0 0 0 0 0 0 1 1 0 0 1 1 1 1 0 1 1 1 0 1 1
    1       0    1 1 1 0 1 1 1 1 0 0 0 0 0 1 1 0 0 0 0 1 1 0 0 1 1
   49       2    0 0 1 1 1 1 0 1 0 0 1 0 1 0 1 0 0 1 1 1 1 0 1 1 0 0 1 1 0 1 0 0 1 0 0 1 1 0 1 1 1 1 1 1 1 0 1 1 1 1 1
    1       1    0 0 0 1 1 1 0 0 0 0 0 1 0 0 1 1 0 0 1 0 0 1 1 1 0 1 0 0 0 0 0 0 0 0 0 0 1 0 0 0 1 1 1 1 0 1 1 1 0 1 1
    1       0    1 1 1 0 1 1 1 1 0 0 0 0 0 1 1 0 1 1 0 1 1 0 0 1 1
   50       2    1 1 1 1 1 1 0 1 0 0 1 0 1 0 1 1 0 1 0 1 0 0 1 0 0 0 0 1 0 1 0 0 1 0 1 1 0 1 0 1 1 0 1 0 1 0 1 1 1 1 1
    1       1    0 0 0 1 0 0 0 0 1 0 0 1 1 0 0 1 1 0 0 0 1 1 1 1 0 1 0 0 0 0 0 0 0 0 0 0 1 0 0 0 1 1 1 1 0 1 1 1 0 1 1
    1       0    1 1 1 0 1 1 1 1 0 0 0 0 0 1 1 0 0 0 0 1 1 0 0 1 1
   51       2    0 0 1 1 1 0 0 1 0 0 1 0 0 0 1 0 0 1 0 1 1 0 1 0 0 0 1 1 0 0 0 1 0 0 0 1 1 1 0 1 0 0 1 1 1 0 0 1 1 1 1
    1       1    0 1 0 1 1 1 0 0 0 0 0 1 0 0 0 1 0 1 1 0 1 1 1 1 0 1 0 0 0 0 0 0 0 0 0 0 1 1 0 0 1 1 1 1 0 1 1 1 1 1 1
    1       0    1 1 1 0 0 1 1 1 0 0 0 0 1 1 1 0 0 0 0 1 1 0 0 1 1
   52       2    0 0 1 1 1 1 0 1 0 0 1 0 1 0 1 1 0 1 0 1 1 0 1 0 0 0 1 1 0 1 0 1 1 0 0 1 0 1 1 1 0 0 1 0 1 0 1 1 1 1 1
    1       1    0 1 0 1 0 0 0 0 1 1 0 0 1 0 0 1 1 1 0 0 1 1 1 1 0 1 0 0 0 0 0 0 0 0 0 0 1 0 0 0 1 1 1 1 0 1 1 1 1 1 1
    1       0    1 1 1 0 0 1 1 1 0 0 0 1 0 1 0 0 0 1 0 1 1 0 0 1 1
   53       2    1 0 1 1 1 1 0 1 0 0 1 0 1 0 1 1 1 1 0 1 0 0 1 1 0 0 0 1 0 0 0 0 1 1 0 1 0 1 0 1 0 0 1 1 1 0 1 1 1 1 1
    1       1    0 1 0 1 0 1 0 0 0 0 0 1 1 0 0 1 1 0 0 0 0 1 1 0 0 1 0 0 0 0 0 0 0 0 0 0 1 0 0 0 1 1 1 1 0 1 1 1 0 1 1
    1       0    1 1 1 0 1 0 1 1 1 0 0 0 0 1 1 0 0 0 0 1 1 0 0 1 1
   54       2    0 1 1 1 1 1 0 1 0 0 1 0 1 0 1 1 0 1 0 1 0 0 1 1 0 0 1 1 0 1 0 0 1 0 0 1 1 1 0 1 0 1 0 1 0 0 1 1 1 1 1
    1       1    0 1 0 0 1 0 0 0 0 0 1 1 1 1 0 1 1 1 0 1 0 1 0 0 0 1 0 0 0 0 0 0 0 0 0 0 1 0 0 0 1 1 1 1 0 1 1 0 1 0 0
    1       0    1 1 1 1 0 0 1 1 1 0 0 0 0 1 1 0 0 1 0 1 1 0 0 1 1
   8800000.00000000        1618033.00000000       0.000000000000000E+000
  1.136363636363636E-007   3794460.00000000        2540149.00000000     
           1          12          43
   437924.000000000        5414370.00000000        8143376.00000000     
   2192297.00000000        4162938.00000000        4449485.00000000     
   1039624.00000000        7100401.00000000        3020565.00000000     
   225669.000000000        67124.0000000000        3794460.00000000     
   27251.0000000000        7361899.00000000        3034756.00000000     
   8139816.00000000        2177184.00000000        6875483.00000000     
   5699281.00000000        3704877.00000000        2357675.00000000     
   1719544.00000000        1581982.00000000        5213346.00000000     
   3320489.00000000        3022615.00000000        8365686.00000000     
   6818212.00000000        6682913.00000000        1728827.00000000     
   4634506.00000000        3754908.00000000        8605128.00000000     
   5481665.00000000        2394447.00000000        3922538.00000000     
   8367571.00000000        7969575.00000000        3792960.00000000     
   8430415.00000000        7178317.00000000        1580346.00000000     
   4754960.00000000        6220724.00000000        4217543.00000000     
   2022298.00000000        7930454.00000000        4441148.00000000     
   8359907.00000000        1705935.00000000        5380089.00000000     
   4118445.00000000        1668194.00000000        2354426.00000000     
   1049160.00000000     
   8800000.00000000        1618033.00000000       0.000000000000000E+000
  1.136363636363636E-007   6400177.00000000        2129117.00000000     
           1           6          37
   1291273.00000000        5173722.00000000        1559756.00000000     
   3370099.00000000        6879312.00000000        6400177.00000000     
   4093398.00000000        7792241.00000000        1825054.00000000     
   1322875.00000000        4163470.00000000        5672352.00000000     
   894177.000000000        4867271.00000000        7902010.00000000     
   4563316.00000000        650367.000000000        2414769.00000000     
   8090270.00000000        2482040.00000000        3175632.00000000     
   3267753.00000000        7166205.00000000        2329863.00000000     
   8421301.00000000        4938891.00000000        3819282.00000000     
   2431749.00000000        7726111.00000000        263290.000000000     
   4502852.00000000        8080028.00000000        2607087.00000000     
   3617699.00000000        8641420.00000000        5806857.00000000     
   1483220.00000000        7101505.00000000        5783736.00000000     
   4770586.00000000        575418.000000000        891829.000000000     
   5892504.00000000        362871.000000000        7739836.00000000     
   2138870.00000000        8096445.00000000        6164545.00000000     
   2205582.00000000        4327928.00000000        2973771.00000000     
   8428786.00000000        3284417.00000000        7511472.00000000     
   6198990.00000000     
   8800000.00000000        1618033.00000000       0.000000000000000E+000
  1.136363636363636E-007   1404230.00000000        8322469.00000000     
           1           6          37
   4051008.00000000        6767578.00000000        75757.0000000000     
   4453247.00000000        5660776.00000000        1404230.00000000     
   70291.0000000000        6652564.00000000        5001315.00000000     
   3694816.00000000        4048949.00000000        4802054.00000000     
   994156.000000000        5405622.00000000        1690255.00000000     
   5542239.00000000        6201737.00000000        5085877.00000000     
   1842996.00000000        3335123.00000000        5343567.00000000     
   2202139.00000000        1973556.00000000        7641598.00000000     
   7765932.00000000        3390641.00000000        7190034.00000000     
   4340821.00000000        7361351.00000000        1377502.00000000     
   7842705.00000000        3159915.00000000        4242842.00000000     
   7399158.00000000        137793.000000000        6113196.00000000     
   6893295.00000000        2951535.00000000        7516830.00000000     
   1903755.00000000        5723825.00000000        6502247.00000000     
   1081291.00000000        4908863.00000000        6424401.00000000     
   2480167.00000000        7295722.00000000        4690424.00000000     
   242566.000000000        736725.000000000        6515694.00000000     
   1738025.00000000        8417897.00000000        2710324.00000000     
   2672170.00000000     
