          42          54   1.00000000000000     
    1       2    0 0 1 1 1 1 0 1 0 1 0 1 0 0 1 0 0 1 1 1 0 0 0 0 0 1 0 0 0 0 1 0 1 0 1 0 0 1 0 1 0 1 0 0 1 1 1 1 1 1 0
    1       1    0 0 0 0 0 0 0 0 1 0 0 1 1 1 0 1 1 1 1 1 0 1 0 0 1 1 0 0 0 0 0 0 0 0 1 0 1 1 1 0 0 1 1 1 1 1 1 1 0 1 0
    1       0    0 1 0 1 0 1 1 1 0 0 0 1 1 1 0 0 1 0 0 1 1 0 0 1 1
    2       2    0 0 1 1 1 1 0 1 0 1 0 1 1 0 0 1 0 0 1 1 0 0 0 1 0 1 1 1 0 0 1 0 1 0 1 0 1 1 0 1 0 1 0 0 1 1 1 1 1 1 0
    1       1    1 0 0 0 0 0 0 0 1 1 0 1 0 0 0 0 1 0 1 1 0 1 0 0 1 1 0 0 0 0 0 0 0 1 1 0 1 1 0 0 0 1 1 1 1 1 1 0 1 1 0
    1       0    0 1 0 1 0 0 1 1 0 0 0 0 1 1 0 0 0 0 0 1 1 0 0 1 1
    3       2    0 0 1 1 1 1 0 1 0 1 0 1 1 0 0 1 1 0 1 1 0 0 0 1 0 1 1 1 0 0 1 0 1 0 1 0 1 1 0 1 0 1 0 0 1 1 1 1 1 1 0
    1       1    1 0 0 0 0 0 0 0 1 0 1 1 0 0 0 0 1 0 1 1 0 1 0 0 1 1 0 0 0 0 0 0 0 1 1 1 1 1 0 1 1 1 1 1 1 1 1 0 1 1 0
    1       0    0 1 0 1 0 0 1 1 0 0 0 1 1 1 0 0 1 0 0 1 1 0 0 1 1
    4       2    0 0 1 1 1 1 0 1 0 1 0 1 0 1 0 0 1 1 0 1 1 0 0 1 0 1 1 0 0 0 1 0 1 0 1 0 1 1 0 1 0 1 0 0 1 1 1 1 1 1 0
    1       1    0 1 0 0 1 1 0 0 1 1 0 1 0 0 0 1 1 1 1 1 1 0 0 0 1 1 0 0 0 0 0 0 0 1 0 1 1 1 0 1 0 1 1 1 1 1 1 0 1 1 0
    1       0    0 1 0 1 0 1 1 1 1 0 0 1 1 1 0 0 0 0 0 1 1 0 0 1 1
    5       2    0 0 1 1 1 1 0 1 0 1 0 1 0 1 0 0 0 1 1 1 0 0 0 1 0 1 0 0 0 0 1 0 1 0 1 0 1 1 0 1 0 1 0 0 1 1 1 1 1 1 0
    1       1    0 1 0 0 1 0 0 0 1 1 0 1 0 0 0 1 1 1 1 1 1 1 0 1 1 1 0 0 0 0 0 0 0 1 0 1 0 1 0 1 0 1 1 1 1 1 1 0 1 1 0
    1       0    0 1 0 1 0 1 1 1 0 0 0 0 1 1 0 0 1 0 0 1 1 0 0 1 1
    6       2    0 0 1 1 1 1 0 1 0 1 0 1 1 0 0 0 0 1 1 1 0 0 0 0 0 1 0 0 0 0 1 0 1 0 1 0 1 1 0 1 0 1 0 0 1 1 1 1 1 1 0
    1       1    0 1 0 0 0 1 0 0 1 1 0 1 0 1 0 1 1 0 1 1 1 1 0 0 1 1 0 0 0 0 0 0 0 1 1 1 1 1 0 1 0 1 1 1 1 1 1 0 1 1 0
    1       0    0 1 0 1 0 1 1 1 0 0 0 0 1 1 0 0 0 0 0 1 1 0 0 1 1
    7       2    0 0 1 1 1 1 0 1 0 1 0 1 0 1 1 1 0 1 0 1 0 0 0 1 0 1 0 0 0 0 0 0 1 0 0 0 1 1 0 1 0 1 0 0 1 1 1 1 1 1 0
    1       1    0 1 0 0 1 1 0 0 1 1 0 1 1 0 0 1 1 1 1 1 1 1 0 0 1 1 0 0 0 0 0 0 0 1 1 1 0 1 1 1 0 1 1 1 1 1 1 0 1 1 0
    1       0    0 1 0 1 0 1 1 1 0 0 1 0 1 1 0 0 1 0 0 1 1 0 0 1 1
    8       2    0 0 1 1 1 1 0 1 0 1 0 1 0 1 0 0 1 1 0 1 1 0 0 1 0 1 1 0 0 0 1 0 1 0 1 0 1 1 0 1 0 1 0 0 1 1 1 1 1 1 0
    1       1    0 1 0 0 1 1 0 0 1 1 0 1 0 0 0 1 1 1 1 1 1 0 0 0 1 1 0 0 0 0 0 0 0 1 0 1 1 1 0 1 0 1 1 1 1 1 1 0 1 1 0
    1       0    0 1 0 1 0 1 1 1 1 0 0 1 1 1 0 0 0 0 0 1 1 0 0 1 1
    9       2    0 0 1 1 1 1 0 1 0 1 0 1 0 1 0 0 0 1 1 1 0 0 0 1 0 1 0 0 0 0 1 0 1 0 1 0 1 1 0 1 0 1 0 0 1 1 1 1 1 1 0
    1       1    0 1 0 0 1 0 0 0 1 1 0 1 0 0 0 1 1 1 1 1 1 1 0 1 1 1 0 0 0 0 0 0 0 1 0 1 0 1 0 1 0 1 1 1 1 1 1 0 1 1 0
    1       0    0 1 0 1 0 1 1 1 0 0 0 0 1 1 0 0 1 0 0 1 1 0 0 1 1
   10       2    0 0 1 1 1 1 0 1 0 1 0 1 0 1 1 0 0 1 1 1 1 0 0 1 0 1 0 1 0 0 1 0 1 0 1 0 1 1 0 1 0 1 0 0 1 1 1 1 1 1 0
    1       1    0 1 0 0 1 1 0 0 1 1 1 1 1 1 0 1 1 1 1 1 1 1 0 0 1 1 0 0 0 0 0 0 0 1 0 1 0 1 1 1 1 1 1 1 1 1 1 0 1 1 0
    1       0    0 1 0 1 0 1 1 1 1 0 0 0 1 1 0 0 1 0 0 1 1 0 0 1 1
   11       2    0 0 1 1 1 1 0 1 0 1 0 1 0 1 0 0 1 1 0 1 1 0 0 1 0 1 1 0 0 0 1 0 1 0 1 0 1 1 0 1 0 1 0 0 1 1 1 1 1 1 0
    1       1    0 1 0 0 1 1 0 0 1 1 0 1 0 0 0 1 1 1 1 1 1 0 0 0 1 1 0 0 0 0 0 0 0 1 0 1 1 1 0 1 0 1 1 1 1 1 1 0 1 1 0
    1       0    0 1 0 1 0 1 1 1 1 0 0 1 1 1 0 0 0 0 0 1 1 0 0 1 1
   12       2    0 0 1 1 1 1 0 1 0 1 0 1 0 1 0 0 0 1 1 1 0 0 0 1 0 1 0 0 0 0 1 0 1 0 1 0 1 1 0 1 0 1 0 0 1 1 1 1 1 1 0
    1       1    0 1 0 0 1 0 0 0 1 1 0 1 0 0 0 1 1 1 1 1 1 1 0 1 1 1 0 0 0 0 0 0 0 1 0 1 0 1 0 1 0 1 1 1 1 1 1 0 1 1 0
    1       0    0 1 0 1 0 1 1 1 0 0 0 0 1 1 0 0 1 0 0 1 1 0 0 1 1
   13       2    0 0 1 1 1 1 0 1 0 1 0 1 0 1 1 1 0 1 1 1 1 0 0 0 0 1 0 1 0 0 1 0 1 0 1 0 0 1 0 1 0 1 0 0 1 1 1 1 1 1 0
    1       1    0 1 0 0 1 1 0 0 1 0 1 1 1 0 0 1 1 1 1 1 0 1 0 0 1 1 0 0 0 0 0 0 0 0 1 0 1 1 0 0 0 1 1 1 1 1 1 0 1 1 0
    1       0    0 1 0 1 0 1 1 1 1 0 0 0 1 1 0 0 1 1 0 1 1 0 0 1 1
   14       2    0 0 1 1 1 1 0 1 0 1 0 1 0 0 0 1 0 0 0 1 1 0 0 0 0 1 1 0 1 0 1 0 1 0 1 0 1 1 0 1 0 1 0 0 1 1 1 1 1 1 0
    1       1    0 1 0 0 1 1 0 0 1 1 0 0 1 1 0 1 1 1 1 1 0 1 0 0 1 1 0 0 0 0 0 0 0 1 1 1 1 1 0 0 0 1 1 1 1 1 1 0 1 1 0
    1       0    0 1 0 1 0 1 1 1 0 0 0 1 1 1 0 0 1 1 0 1 1 0 0 1 1
   15       2    0 0 1 1 1 1 0 1 0 1 0 1 0 1 0 0 1 1 0 1 0 1 0 0 0 1 1 0 0 0 0 0 1 0 1 0 1 1 0 1 0 1 0 0 1 1 1 1 1 1 0
    1       1    0 1 0 0 1 0 0 0 0 1 1 1 0 0 0 0 1 1 1 1 1 0 0 0 1 1 0 0 0 0 0 0 0 1 1 1 1 1 0 1 1 1 1 1 1 1 1 0 1 1 0
    1       0    0 1 0 1 0 1 1 1 1 0 0 1 1 1 0 0 0 0 0 1 1 0 0 1 1
   16       2    0 0 1 1 1 1 0 1 0 1 0 1 0 1 1 1 0 1 0 1 0 0 0 1 0 1 0 0 0 0 1 0 1 0 0 0 1 1 0 1 0 1 0 0 1 1 1 1 1 1 0
    1       1    0 1 0 0 1 1 0 0 1 1 0 1 1 0 1 1 1 1 1 1 1 1 0 0 1 1 0 0 0 0 0 0 0 1 1 1 0 1 1 1 0 1 1 1 1 1 1 0 1 1 0
    1       0    0 1 0 1 0 1 1 1 0 0 1 0 1 1 0 0 1 0 0 1 1 0 0 1 1
   17       2    0 0 1 1 1 1 0 1 0 1 0 1 1 0 0 1 0 0 1 1 1 0 0 0 0 1 0 0 1 0 1 0 1 0 1 0 1 1 0 1 0 1 0 0 1 1 1 1 1 1 0
    1       1    0 1 0 0 1 1 0 0 1 1 0 1 1 1 0 1 1 1 1 1 1 1 0 0 1 1 0 0 0 0 0 0 0 1 1 1 1 1 1 0 0 1 1 1 1 1 1 0 0 1 0
    1       0    0 1 0 1 1 0 1 1 0 0 0 0 1 1 0 0 0 0 0 1 1 0 0 1 1
   18       2    0 0 1 1 1 1 0 1 0 1 0 1 1 0 0 1 0 0 1 1 1 0 0 0 0 1 0 0 1 0 1 0 1 0 1 0 1 1 0 1 0 1 0 0 1 1 1 1 1 1 0
    1       1    0 1 0 0 1 1 0 0 1 1 0 1 1 1 0 1 1 1 1 1 1 1 0 0 1 1 0 0 0 0 0 0 0 1 1 1 1 1 1 0 0 1 1 1 1 1 1 0 0 1 0
    1       0    0 1 0 1 1 0 1 1 0 0 0 0 1 1 0 0 0 0 0 1 1 0 0 1 1
   19       2    0 0 1 1 1 1 0 1 0 1 0 1 1 0 0 1 0 0 1 1 1 0 0 0 0 1 0 0 1 0 1 0 1 0 1 0 1 1 0 1 0 1 0 0 1 1 1 1 1 1 0
    1       1    0 1 0 0 1 1 0 0 1 1 0 1 1 1 0 1 1 1 1 1 1 1 0 0 1 1 0 0 0 0 0 0 0 1 1 1 1 1 1 0 0 1 1 1 1 1 1 0 0 1 0
    1       0    0 1 0 1 1 0 1 1 0 0 0 0 1 1 0 0 0 0 0 1 1 0 0 1 1
   20       2    0 0 1 1 1 1 0 1 0 1 0 1 1 0 1 1 0 0 1 1 0 0 0 1 0 1 1 1 1 0 1 0 1 0 1 0 0 1 0 1 0 1 0 0 1 0 1 1 1 1 0
    1       1    1 0 0 0 0 0 0 0 1 1 0 1 1 0 0 1 1 0 1 1 0 1 0 0 1 1 0 0 0 0 0 0 0 0 1 0 1 1 0 0 0 1 1 1 1 0 1 1 0 1 0
    1       0    0 1 1 1 0 0 0 1 0 0 1 0 1 1 0 0 0 0 0 1 1 0 0 1 1
   21       2    0 0 1 1 1 1 0 1 0 1 0 1 1 0 1 1 0 0 1 1 0 0 0 1 0 1 1 1 1 0 1 0 1 0 1 0 0 1 0 1 0 1 0 0 1 0 1 1 1 1 0
    1       1    1 0 0 0 0 0 0 0 1 1 0 1 1 0 0 1 1 0 1 1 0 1 0 0 1 1 0 0 0 0 0 0 0 0 1 0 1 1 0 0 0 1 1 1 1 0 1 1 0 1 0
    1       0    0 1 1 1 0 0 0 1 0 0 1 0 1 1 0 0 0 0 0 1 1 0 0 1 1
   22       2    0 0 1 1 1 1 0 1 0 1 0 1 1 0 0 0 0 1 1 1 1 0 0 0 0 1 1 0 0 0 1 0 1 0 1 1 1 1 0 1 0 1 0 0 1 1 1 1 1 1 0
    1       1    1 0 0 0 0 1 0 0 1 0 0 1 0 1 0 1 1 1 1 1 0 1 0 0 1 1 0 0 0 0 0 0 0 1 1 1 1 1 1 1 0 1 1 1 1 0 1 0 1 1 0
    1       0    0 1 1 1 0 0 1 1 0 0 0 0 1 1 0 0 1 0 0 1 1 0 0 1 1
   23       2    0 0 1 1 1 1 0 1 0 1 0 1 1 0 1 1 0 1 1 1 1 0 0 0 0 1 1 1 1 0 1 0 1 0 1 1 0 1 0 1 0 1 0 0 1 1 1 1 1 1 0
    1       1    1 0 0 0 0 1 0 0 1 0 0 1 1 0 0 1 1 1 1 1 0 1 0 0 1 1 0 0 0 0 0 0 0 0 0 0 1 1 0 1 0 1 1 1 1 0 1 0 1 1 0
    1       0    0 1 1 1 0 0 1 1 0 0 0 0 1 1 0 0 1 1 0 1 1 0 0 1 1
   24       2    0 0 1 1 1 1 0 1 0 1 0 1 1 0 0 0 0 1 1 1 1 0 0 0 0 1 1 0 0 0 1 0 1 0 1 1 1 1 0 1 0 1 0 0 1 1 1 1 1 1 0
    1       1    1 0 0 0 0 1 0 0 1 0 0 1 0 1 0 1 1 1 1 1 0 1 0 0 1 1 0 0 0 0 0 0 0 1 1 1 1 1 1 1 0 1 1 1 1 0 1 0 1 1 0
    1       0    0 1 1 1 0 0 1 1 0 0 0 0 1 1 0 0 1 0 0 1 1 0 0 1 1
   25       2    0 0 1 1 1 1 0 1 0 1 0 1 1 0 0 0 0 1 1 1 1 0 0 0 0 1 1 0 0 0 1 0 1 0 1 1 1 1 0 1 0 1 0 0 1 1 1 1 1 1 0
    1       1    1 0 0 0 0 1 0 0 1 0 0 1 0 1 0 1 1 1 1 1 0 1 0 0 1 1 0 0 0 0 0 0 0 1 1 1 1 1 1 1 0 1 1 1 1 0 1 0 1 1 0
    1       0    0 1 1 1 0 0 1 1 0 0 0 0 1 1 0 0 1 0 0 1 1 0 0 1 1
   26       2    0 0 1 1 1 1 0 1 0 1 0 1 1 0 1 0 0 0 1 1 1 0 0 0 0 1 1 0 0 0 1 0 1 0 1 0 1 1 0 1 0 1 0 0 1 1 1 1 1 1 0
    1       1    1 0 0 0 0 1 0 0 1 0 0 1 1 1 0 1 1 1 1 1 0 1 0 0 1 1 0 0 0 0 0 0 0 1 1 1 0 1 1 1 1 1 1 1 1 0 1 0 1 1 0
    1       0    0 1 1 1 0 0 1 1 0 0 0 0 1 1 0 0 1 0 0 1 1 0 0 1 1
   27       2    0 0 1 1 1 1 0 1 0 1 0 0 1 0 0 1 0 1 1 1 1 0 0 0 0 1 1 0 0 0 1 0 1 0 1 1 1 1 0 1 0 1 0 0 1 1 1 1 1 1 0
    1       1    1 0 0 0 0 1 0 0 1 1 0 1 1 0 0 1 0 1 1 1 0 1 0 0 1 1 0 0 0 0 0 0 0 1 1 1 1 1 0 1 0 1 1 1 1 0 1 0 1 1 0
    1       0    0 1 1 1 0 0 1 1 0 0 0 0 1 1 0 0 1 0 0 1 1 0 0 1 1
   28       2    0 0 1 1 1 1 0 1 0 1 0 1 1 0 0 0 0 1 1 1 0 0 0 0 0 1 1 0 0 0 1 0 1 0 1 1 0 1 0 1 0 1 0 0 1 1 1 1 1 1 0
    1       1    1 0 0 0 0 1 0 0 1 0 0 1 0 0 1 1 1 1 1 0 0 1 0 0 1 1 0 0 0 0 0 0 0 0 1 1 1 1 1 1 0 1 1 1 1 0 1 0 1 1 0
    1       0    0 1 1 1 0 0 1 1 0 0 0 0 0 1 0 0 1 0 0 1 1 0 0 1 1
   29       2    0 0 1 1 1 1 0 1 0 1 0 1 1 0 0 0 0 1 1 1 0 0 0 0 0 1 1 0 0 0 1 0 1 0 1 1 1 1 0 1 0 1 0 0 1 1 1 1 1 1 0
    1       1    1 0 0 0 0 1 0 0 1 0 0 1 0 1 0 1 1 1 1 1 1 1 0 0 1 1 0 0 0 0 0 0 0 0 1 1 1 1 1 1 0 1 1 1 1 0 1 0 1 1 0
    1       0    0 1 1 1 0 0 1 1 0 0 0 0 1 1 0 0 1 0 0 1 1 0 0 1 1
   30       2    0 0 1 1 1 1 0 1 0 1 0 1 1 0 1 0 1 0 1 1 1 0 0 0 0 1 1 0 0 0 1 0 1 0 1 1 1 1 0 1 0 1 0 0 1 1 1 1 1 1 0
    1       1    1 0 0 0 0 1 0 0 1 0 0 1 1 1 0 1 1 1 1 1 0 1 0 0 1 1 0 0 0 0 0 0 0 1 1 1 0 1 1 1 1 1 1 1 1 0 1 0 1 1 0
    1       0    0 1 1 1 0 0 1 1 0 0 0 0 1 1 0 0 1 0 0 1 1 0 0 1 1
   31       2    0 0 1 1 1 1 0 1 0 1 0 1 1 0 0 0 0 1 1 1 1 0 0 0 0 1 1 0 0 0 1 0 1 0 1 1 1 1 0 1 0 1 0 0 1 1 1 1 1 1 0
    1       1    1 0 0 0 0 1 0 0 1 0 0 1 0 1 0 1 1 1 1 1 0 1 0 0 1 1 0 0 0 0 0 0 0 1 1 1 1 1 1 1 0 1 1 1 1 0 1 0 1 1 0
    1       0    0 1 1 1 0 0 1 1 0 0 0 0 1 1 0 0 1 0 0 1 1 0 0 1 1
   32       2    0 0 1 1 1 1 0 1 0 1 0 1 1 0 1 0 0 1 0 1 0 1 0 0 0 1 1 0 0 0 1 0 1 0 1 1 1 1 0 1 0 1 0 0 1 1 1 1 1 1 0
    1       1    1 0 0 0 0 1 0 0 1 0 0 0 0 1 0 1 1 0 1 1 0 1 1 0 1 1 0 0 0 0 0 0 0 1 1 0 1 1 1 1 0 1 1 1 1 0 1 0 1 1 0
    1       0    0 1 1 1 0 0 1 1 0 0 0 0 1 1 0 0 1 0 0 1 1 0 0 1 1
   33       2    0 0 1 1 1 1 0 1 0 1 0 1 1 0 1 1 0 0 1 1 1 0 0 0 0 1 1 0 0 0 1 0 1 0 1 0 1 1 0 1 0 1 0 0 1 1 1 1 1 1 0
    1       1    1 0 0 0 1 1 0 0 1 0 0 1 1 1 0 1 1 1 1 1 0 1 0 0 1 1 0 0 0 0 0 0 0 1 1 1 0 0 1 1 1 1 1 1 1 0 1 0 1 1 0
    1       0    0 1 1 1 0 0 1 1 0 0 0 0 1 1 0 0 1 0 0 1 1 0 0 1 1
   34       2    0 0 1 1 1 1 0 1 0 1 0 1 1 0 0 1 0 0 1 1 0 0 0 0 0 1 1 0 1 0 1 0 1 0 1 1 0 1 0 1 0 1 0 0 1 1 1 1 1 1 0
    1       1    1 0 0 0 0 1 0 0 1 0 0 1 1 0 1 1 1 1 1 0 0 1 0 0 1 1 0 0 0 0 0 0 0 0 1 1 1 1 1 0 0 1 1 1 1 0 1 0 1 1 0
    1       0    0 1 1 1 0 0 1 1 0 0 0 0 0 1 0 0 1 0 0 1 1 0 0 1 1
   35       2    0 0 1 1 1 1 0 1 0 1 0 1 1 0 1 0 0 1 1 1 1 0 0 0 0 1 1 0 0 0 1 0 1 0 1 1 1 1 0 1 0 1 0 0 1 1 1 1 1 1 0
    1       1    1 0 0 0 0 1 1 0 1 0 0 1 0 1 0 1 1 1 1 1 0 1 0 0 1 1 0 0 0 0 0 0 0 1 1 1 0 1 1 1 1 1 1 1 1 0 1 0 1 1 0
    1       0    0 1 1 1 0 0 1 1 0 0 1 0 1 1 0 0 1 0 0 1 1 0 0 1 1
   36       2    0 0 1 1 1 1 0 1 0 1 0 1 1 0 0 1 0 0 1 0 0 0 0 0 0 1 1 0 0 0 1 0 1 0 1 1 1 1 0 1 0 1 0 0 1 1 1 1 1 1 0
    1       1    1 0 0 0 0 1 0 0 1 0 0 1 1 0 1 1 0 1 1 1 0 1 0 0 1 1 0 0 0 0 0 0 0 0 1 1 1 1 1 1 0 1 1 1 1 0 1 0 1 1 0
    1       0    0 1 1 1 0 0 1 1 0 0 0 0 1 1 0 0 1 0 0 1 1 0 0 1 1
   37       2    0 0 1 1 1 1 0 1 0 1 0 1 1 0 0 0 0 1 1 1 1 0 0 1 0 1 1 0 0 0 1 0 1 1 1 1 1 1 0 1 0 1 0 0 1 1 1 1 1 1 0
    1       1    1 0 0 0 0 1 0 0 1 0 0 1 0 1 0 1 1 1 1 1 0 0 0 0 1 1 0 0 0 0 0 0 0 1 1 1 1 1 1 1 0 1 1 1 1 0 1 0 1 1 0
    1       0    0 1 1 1 0 0 1 1 0 0 0 0 1 1 0 0 1 0 0 1 1 0 0 1 1
   38       2    0 0 1 1 1 1 0 1 0 1 0 1 0 0 1 1 0 1 0 1 0 0 0 0 0 1 1 0 0 0 1 0 1 0 1 0 1 1 0 1 0 1 0 0 1 1 1 1 1 1 0
    1       1    0 1 0 0 1 0 0 0 1 0 0 1 0 0 0 1 1 1 1 1 0 1 0 0 1 1 0 0 0 0 0 0 0 0 1 0 1 1 0 0 0 1 1 1 1 0 1 0 1 1 0
    1       0    0 1 1 1 0 1 1 1 0 0 0 0 1 1 0 0 1 0 0 1 1 0 0 1 1
   39       2    0 0 1 1 1 1 0 1 0 1 0 1 0 0 1 1 0 1 0 1 0 0 0 0 0 1 1 0 0 0 1 0 1 0 1 0 1 1 0 1 0 1 0 0 1 1 1 1 1 1 0
    1       1    0 1 0 0 1 0 0 0 1 0 0 1 0 0 0 1 1 1 1 1 0 1 0 0 1 1 0 0 0 0 0 0 0 0 1 0 1 1 0 0 0 1 1 1 1 0 1 0 1 1 0
    1       0    0 1 1 1 0 1 1 1 0 0 0 0 1 1 0 0 1 0 0 1 1 0 0 1 1
   40       2    0 0 1 1 1 1 0 1 0 1 0 1 0 0 0 1 1 1 0 1 0 0 0 0 0 1 1 0 0 0 1 0 1 0 1 0 1 1 0 1 0 1 0 0 1 1 1 1 1 1 0
    1       1    0 1 0 0 1 1 0 0 1 1 0 1 0 0 0 1 1 1 1 1 0 1 0 0 1 1 0 0 0 0 0 0 0 0 1 1 1 1 0 1 0 1 1 1 1 0 1 0 1 1 0
    1       0    0 1 1 1 0 1 1 1 0 0 0 0 1 1 0 0 1 0 0 1 1 0 0 1 1
   41       2    0 0 1 1 1 1 0 1 0 1 0 1 0 0 1 1 0 1 0 1 0 0 0 0 0 1 1 0 0 0 1 0 1 0 1 0 1 1 0 1 0 1 0 0 1 1 1 1 1 1 0
    1       1    0 1 0 0 1 0 0 0 1 0 0 1 0 0 0 1 1 1 1 1 0 1 0 0 1 1 0 0 0 0 0 0 0 0 1 0 1 1 0 0 0 1 1 1 1 0 1 0 1 1 0
    1       0    0 1 1 1 0 1 1 1 0 0 0 0 1 1 0 0 1 0 0 1 1 0 0 1 1
   42       2    0 0 1 1 1 1 0 1 0 1 0 1 1 0 1 1 0 1 1 1 0 0 0 0 0 1 1 0 0 0 1 0 1 0 1 1 1 1 0 1 0 1 0 0 1 1 1 1 1 1 0
    1       1    0 1 0 0 0 1 0 0 1 0 0 1 0 0 0 1 1 1 1 1 0 1 0 0 1 1 0 0 0 0 0 0 0 1 1 0 1 1 1 0 0 1 1 1 1 0 1 0 1 1 0
    1       0    0 1 1 1 0 1 1 1 0 0 0 0 1 0 0 0 1 0 0 1 1 0 0 1 1
   43       2    0 0 1 1 1 1 0 1 0 1 0 1 0 0 0 1 0 1 0 1 0 0 0 0 0 1 1 0 0 0 1 0 1 0 1 0 1 1 0 1 0 1 0 0 1 1 1 1 1 1 0
    1       1    0 1 0 0 1 1 0 0 1 1 1 1 0 0 0 1 1 1 1 1 0 1 0 0 1 1 0 0 0 0 0 0 0 0 1 0 0 1 0 0 1 1 1 1 1 0 1 0 1 1 0
    1       0    0 1 1 1 0 1 1 1 0 0 0 0 1 1 0 0 1 0 0 1 1 0 0 1 1
   44       2    0 0 1 1 1 1 0 1 0 1 0 1 0 0 0 1 0 1 0 1 0 0 0 0 0 1 1 0 0 0 0 0 1 0 1 0 1 1 0 1 0 1 0 0 1 1 1 1 1 1 0
    1       1    0 1 0 0 1 0 0 0 1 1 1 1 0 0 0 1 1 1 1 1 0 1 0 0 1 1 0 0 0 0 0 0 0 0 1 0 1 1 0 0 1 1 1 1 1 0 1 0 1 1 0
    1       0    0 1 1 1 0 1 1 1 0 0 0 0 1 1 1 0 0 0 0 1 1 0 0 1 1
   45       2    0 0 1 1 1 1 0 1 0 1 0 1 0 0 0 1 0 1 0 1 0 0 0 0 0 1 1 0 0 0 1 0 1 0 1 0 1 1 0 1 0 1 0 0 1 1 1 1 1 1 0
    1       1    0 1 0 0 1 1 0 0 1 1 0 0 0 0 0 1 1 1 1 1 0 1 0 0 1 1 0 0 0 0 0 0 0 0 1 0 1 1 0 1 0 1 1 1 1 0 1 0 1 1 0
    1       0    0 1 1 1 0 1 1 1 0 0 0 1 1 1 0 0 1 0 0 1 1 0 0 1 1
   46       2    0 0 1 1 1 1 0 1 0 1 0 1 0 0 1 1 0 1 0 1 0 0 0 0 0 1 1 0 0 0 1 0 1 0 1 0 0 1 0 1 0 1 0 0 1 1 1 1 1 1 0
    1       1    0 1 0 0 1 0 0 0 1 1 0 1 0 0 0 1 1 1 1 1 0 1 0 0 1 1 0 0 0 0 0 0 0 0 1 0 0 1 0 0 1 1 1 1 1 0 1 0 1 1 0
    1       0    0 1 1 1 0 1 1 1 0 0 0 0 1 1 0 0 1 0 0 1 1 0 0 1 1
   47       2    0 0 1 1 1 1 0 1 0 1 0 1 0 1 0 0 1 1 0 1 0 0 0 1 0 1 1 0 0 0 1 0 1 0 1 0 1 1 0 1 0 1 0 0 1 1 1 1 1 1 0
    1       1    0 1 0 0 1 1 0 0 1 1 0 1 0 0 0 1 1 1 1 1 0 0 0 0 1 1 0 0 0 0 0 0 0 0 0 1 1 1 0 1 0 1 1 1 1 0 1 0 1 1 0
    1       0    0 1 1 1 0 1 1 1 0 0 0 1 1 1 0 0 1 0 0 1 1 0 0 1 1
   48       2    0 0 1 1 1 1 0 1 0 1 0 1 0 0 1 1 0 1 1 1 1 0 0 0 0 1 1 0 1 0 1 0 1 0 1 0 1 1 0 1 0 1 0 0 1 1 1 1 1 1 0
    1       1    0 1 0 0 1 0 0 0 1 1 0 1 0 0 0 1 1 1 1 1 1 0 0 0 1 1 0 0 0 0 0 0 0 1 1 0 1 1 0 0 0 1 1 1 1 0 1 0 1 1 0
    1       0    0 1 1 1 0 1 1 1 0 0 0 0 1 1 0 0 0 0 0 1 1 0 0 1 1
   49       2    0 0 1 1 1 1 0 1 0 1 0 1 0 0 0 0 0 1 0 1 0 0 0 0 0 1 1 0 0 0 1 0 1 0 1 1 1 1 0 1 0 1 0 0 1 1 1 1 1 1 0
    1       1    0 1 0 0 1 1 0 0 1 0 0 0 0 1 0 1 1 1 1 1 0 1 0 0 1 1 0 0 0 0 0 0 0 1 1 0 1 1 0 1 0 1 1 1 1 0 1 0 1 1 0
    1       0    0 1 1 1 0 1 1 1 0 0 0 1 1 1 0 0 1 1 0 1 1 0 0 1 1
   50       2    0 0 1 1 1 1 0 1 0 1 0 1 0 0 0 1 0 1 0 1 0 0 0 0 0 1 1 0 0 0 1 0 1 0 1 1 1 1 0 1 0 1 0 0 1 1 1 1 1 1 0
    1       1    0 1 0 0 1 1 0 0 1 1 1 1 0 0 0 1 1 1 1 1 0 0 0 0 1 1 0 0 0 0 0 0 0 0 1 1 1 1 0 0 1 1 1 1 1 0 1 0 1 1 0
    1       0    0 1 1 1 0 1 1 1 0 0 0 0 1 1 0 0 1 0 0 1 1 0 0 1 1
   51       2    0 0 1 1 1 1 0 1 0 1 0 1 0 1 0 1 0 1 0 1 1 0 0 1 0 1 1 0 0 0 1 0 1 0 1 0 1 1 0 1 0 1 0 0 1 1 1 1 1 1 0
    1       1    0 1 0 0 1 1 0 0 1 1 0 1 0 0 0 1 1 1 1 1 0 1 0 0 1 1 0 0 0 0 0 0 0 0 0 0 1 1 0 0 0 1 1 1 1 0 1 0 1 1 0
    1       0    0 1 1 1 0 1 1 1 0 0 0 0 1 1 1 0 0 0 0 1 1 0 0 1 1
   52       2    0 0 1 1 1 1 0 1 0 1 0 1 1 0 0 0 0 1 1 0 1 0 0 0 0 1 1 0 0 1 1 0 1 1 1 1 1 1 0 1 0 1 0 0 1 1 1 1 1 1 0
    1       1    1 1 0 0 1 1 0 0 1 0 0 1 0 0 0 1 1 1 1 1 0 1 0 0 1 1 0 0 0 0 0 0 0 0 0 1 1 1 1 0 0 1 1 1 1 0 1 0 0 1 0
    1       0    0 1 1 1 0 0 1 1 0 0 0 0 1 1 0 0 1 0 0 1 1 0 0 1 1
   53       2    0 0 1 1 1 1 0 1 0 1 0 1 1 0 1 1 0 1 0 1 0 1 0 0 0 1 1 0 0 0 1 0 1 0 1 1 0 1 0 1 0 1 0 0 1 1 1 1 1 1 0
    1       1    1 0 0 0 0 1 0 0 1 0 0 1 0 1 0 1 1 0 1 1 0 1 0 0 1 1 0 0 0 0 0 0 0 1 1 0 1 1 1 0 0 1 1 1 1 0 1 0 1 1 1
    1       0    0 1 1 1 0 0 1 1 0 0 0 0 1 1 0 0 1 0 0 1 1 0 0 1 1
   54       2    0 0 1 1 1 1 0 1 0 1 0 1 1 0 0 1 0 1 1 1 0 0 0 0 0 1 1 1 0 0 1 0 1 0 1 1 0 1 0 1 0 1 0 0 1 1 1 1 1 1 0
    1       1    1 0 0 0 0 1 0 0 1 0 0 1 0 1 0 1 1 1 1 1 1 1 0 0 1 1 0 0 0 0 0 0 0 0 1 1 1 1 1 0 0 1 1 1 1 0 1 0 1 1 1
    1       0    0 1 1 1 0 0 1 1 0 0 0 0 1 1 0 0 1 1 0 1 1 0 0 1 1
   8800000.00000000        1618033.00000000       0.000000000000000E+000
  1.136363636363636E-007   4563458.00000000        2540149.00000000     
           1           9          40
   8082948.00000000        8519768.00000000        8161321.00000000     
   403806.000000000        5656711.00000000        6321699.00000000     
   6481845.00000000        949547.000000000        4563458.00000000     
   4758300.00000000        1662911.00000000        783156.000000000     
   537061.000000000        1492243.00000000        5599609.00000000     
   3263049.00000000        2353742.00000000        7013089.00000000     
   4570574.00000000        1057435.00000000        5316780.00000000     
   8744963.00000000        4202324.00000000        5899052.00000000     
   7776539.00000000        1787024.00000000        4540943.00000000     
   6575588.00000000        6896708.00000000        2467138.00000000     
   4584246.00000000        2792786.00000000        7406248.00000000     
   2916193.00000000        7079641.00000000        5314092.00000000     
   1726930.00000000        8547354.00000000        7111516.00000000     
   153402.000000000        6956291.00000000        6783310.00000000     
   5827415.00000000        2575493.00000000        3746206.00000000     
   6389482.00000000        7769136.00000000        1333683.00000000     
   5073222.00000000        7858489.00000000        8650176.00000000     
   1065236.00000000        1189655.00000000        3842125.00000000     
   8402108.00000000     
   8800000.00000000        1618033.00000000       0.000000000000000E+000
  1.136363636363636E-007   8550342.00000000        2129117.00000000     
           1           9          40
   4324858.00000000        8311529.00000000        3839213.00000000     
   2989039.00000000        4400295.00000000        5777288.00000000     
   2910797.00000000        5550124.00000000        8550342.00000000     
   7242483.00000000        6142515.00000000        5802786.00000000     
   5207352.00000000        6537388.00000000        7326511.00000000     
   1193568.00000000        2457532.00000000        1554130.00000000     
   2767809.00000000        2381698.00000000        3454913.00000000     
   5259293.00000000        7213569.00000000        5379036.00000000     
   7188902.00000000        1025673.00000000        6170894.00000000     
   5867353.00000000        6027185.00000000        7752608.00000000     
   4452111.00000000        8237084.00000000        5094901.00000000     
   4522140.00000000        6519601.00000000        1852550.00000000     
   844375.000000000        7005502.00000000        2565168.00000000     
   6591917.00000000        2791563.00000000        999201.000000000     
   4701878.00000000        2674279.00000000        7933084.00000000     
   2221784.00000000        4237124.00000000        19076.0000000000     
   3603911.00000000        4915116.00000000        5641332.00000000     
   3491459.00000000        6618980.00000000        6285089.00000000     
   566612.000000000     
   8800000.00000000        1618033.00000000       0.000000000000000E+000
  1.136363636363636E-007   7966149.00000000        8322469.00000000     
           1          15          46
   1455860.00000000        6164637.00000000        8434691.00000000     
   1930579.00000000        5184925.00000000        2200994.00000000     
   3643999.00000000        8121489.00000000        402486.000000000     
   659477.000000000        1289654.00000000        3060574.00000000     
   3022453.00000000        8233872.00000000        7966149.00000000     
   2022117.00000000        7900705.00000000        3380103.00000000     
   5584783.00000000        2561187.00000000        891168.000000000     
   3043351.00000000        1434691.00000000        2021017.00000000     
   3224683.00000000        2591082.00000000        1295277.00000000     
   292641.000000000        8089636.00000000        4024011.00000000     
   7762912.00000000        5235618.00000000        6367525.00000000     
   72108.0000000000        6334832.00000000        1403659.00000000     
   3760155.00000000        6356449.00000000        434860.000000000     
   6289866.00000000        3983812.00000000        4797491.00000000     
   6478185.00000000        4961868.00000000        298172.000000000     
   6813493.00000000        8694962.00000000        8313106.00000000     
   2750585.00000000        5430915.00000000        3537253.00000000     
   3787445.00000000        382693.000000000        4985542.00000000     
   1003331.00000000     
