          43          54   1.00000000000000     
    1       2    0 0 1 1 1 1 0 1 0 1 0 1 0 0 1 0 0 1 1 1 0 0 0 0 0 1 0 0 0 0 1 0 1 0 1 0 0 1 0 1 0 1 0 0 1 1 1 1 1 1 0
    1       1    0 0 0 0 0 0 0 0 1 0 0 1 1 1 0 1 1 1 1 1 0 1 0 0 1 1 0 0 0 0 0 0 0 0 1 0 1 1 1 0 0 1 1 1 1 1 1 1 0 1 0
    1       0    0 1 0 1 0 1 1 1 0 0 0 1 1 1 0 0 1 0 0 1 1 0 0 1 1
    2       2    0 0 1 1 1 1 0 1 0 1 0 1 1 0 0 1 0 0 1 1 0 0 0 1 0 1 1 1 0 0 1 0 1 0 1 0 1 1 0 1 0 1 0 0 1 1 1 1 1 1 0
    1       1    1 0 0 0 0 0 0 0 1 1 0 1 0 0 0 0 1 0 1 1 0 1 0 0 1 1 0 0 0 0 0 0 0 1 1 0 1 1 0 0 0 1 1 1 1 1 1 0 1 1 0
    1       0    0 1 0 1 0 0 1 1 0 0 0 0 1 1 0 0 0 0 0 1 1 0 0 1 1
    3       2    0 0 1 1 1 1 0 1 0 1 0 1 1 0 0 1 1 0 1 1 0 0 0 1 0 1 1 1 0 0 1 0 1 0 1 0 1 1 0 1 0 1 0 0 1 1 1 1 1 1 0
    1       1    1 0 0 0 0 0 0 0 1 0 1 1 0 0 0 0 1 0 1 1 0 1 0 0 1 1 0 0 0 0 0 0 0 1 1 1 1 1 0 1 1 1 1 1 1 1 1 0 1 1 0
    1       0    0 1 0 1 0 0 1 1 0 0 0 1 1 1 0 0 1 0 0 1 1 0 0 1 1
    4       2    0 0 1 1 1 1 0 1 0 1 0 1 0 0 0 0 0 1 1 1 1 0 0 0 0 1 1 0 0 0 1 0 1 0 1 1 1 1 0 1 0 1 0 0 1 1 1 1 1 1 0
    1       1    1 0 0 0 0 1 0 0 1 0 0 1 0 1 0 1 1 1 1 1 0 1 0 0 1 1 0 0 0 0 0 0 0 1 1 1 1 1 1 1 0 1 1 1 1 1 1 0 1 1 0
    1       0    0 1 0 1 0 0 1 1 0 0 1 0 1 1 0 0 1 0 0 1 1 0 0 1 1
    5       2    0 0 1 1 1 1 0 1 0 1 0 1 0 1 0 0 1 1 0 1 1 0 0 1 0 1 1 0 0 0 1 0 1 0 1 0 1 1 0 1 0 1 0 0 1 1 1 1 1 1 0
    1       1    0 1 0 0 1 1 0 0 1 1 0 1 0 0 0 1 1 1 1 1 1 0 0 0 1 1 0 0 0 0 0 0 0 1 0 1 1 1 0 1 0 1 1 1 1 1 1 0 1 1 0
    1       0    0 1 0 1 0 1 1 1 1 0 0 1 1 1 0 0 0 0 0 1 1 0 0 1 1
    6       2    0 0 1 1 1 1 0 1 0 1 0 1 0 1 0 0 0 1 1 1 0 0 0 1 0 1 0 0 0 0 1 0 1 0 1 0 1 1 0 1 0 1 0 0 1 1 1 1 1 1 0
    1       1    0 1 0 0 1 0 0 0 1 1 0 1 0 0 0 1 1 1 1 1 1 1 0 1 1 1 0 0 0 0 0 0 0 1 0 1 0 1 0 1 0 1 1 1 1 1 1 0 1 1 0
    1       0    0 1 0 1 0 1 1 1 0 0 0 0 1 1 0 0 1 0 0 1 1 0 0 1 1
    7       2    0 0 1 1 1 1 0 1 0 1 0 1 1 0 0 0 0 1 1 1 0 0 0 0 0 1 0 0 0 0 1 0 1 0 1 0 1 1 0 1 0 1 0 0 1 1 1 1 1 1 0
    1       1    0 1 0 0 0 1 0 0 1 1 0 1 0 1 0 1 1 0 1 1 1 1 0 0 1 1 0 0 0 0 0 0 0 1 1 1 1 1 0 1 0 1 1 1 1 1 1 0 1 1 0
    1       0    0 1 0 1 0 1 1 1 0 0 0 0 1 1 0 0 0 0 0 1 1 0 0 1 1
    8       2    0 0 1 1 1 1 0 1 0 1 0 1 0 1 0 0 0 1 1 1 0 0 0 1 0 1 0 0 0 0 1 0 1 0 1 0 1 1 0 1 0 1 0 0 1 1 1 1 1 1 0
    1       1    0 1 0 0 1 0 0 0 1 1 0 1 0 0 0 1 1 1 1 1 1 1 0 1 1 1 0 0 0 0 0 0 0 1 0 1 0 1 0 1 0 1 1 1 1 1 1 0 1 1 0
    1       0    0 1 0 1 0 1 1 1 0 0 0 0 1 1 0 0 1 0 0 1 1 0 0 1 1
    9       2    0 0 1 1 1 1 0 1 0 1 0 1 0 1 1 1 0 1 0 1 0 0 0 1 0 1 0 0 0 0 0 0 1 0 0 0 1 1 0 1 0 1 0 0 1 1 1 1 1 1 0
    1       1    0 1 0 0 1 1 0 0 1 1 0 1 1 0 0 1 1 1 1 1 1 1 0 0 1 1 0 0 0 0 0 0 0 1 1 1 0 1 1 1 0 1 1 1 1 1 1 0 1 1 0
    1       0    0 1 0 1 0 1 1 1 0 0 1 0 1 1 0 0 1 0 0 1 1 0 0 1 1
   10       2    0 0 1 1 1 1 0 1 0 1 0 1 0 1 1 0 0 1 1 1 1 0 0 1 0 1 0 1 0 0 1 0 1 0 1 0 1 1 0 1 0 1 0 0 1 1 1 1 1 1 0
    1       1    0 1 0 0 1 1 0 0 1 1 1 1 1 1 0 1 1 1 1 1 1 1 0 0 1 1 0 0 0 0 0 0 0 1 0 1 0 1 1 1 1 1 1 1 1 1 1 0 1 1 0
    1       0    0 1 0 1 0 1 1 1 1 0 0 0 1 1 0 0 1 0 0 1 1 0 0 1 1
   11       2    0 0 1 1 1 1 0 1 0 1 0 1 0 1 0 0 1 1 0 1 1 0 0 1 0 1 1 0 0 0 1 0 1 0 1 0 1 1 0 1 0 1 0 0 1 1 1 1 1 1 0
    1       1    0 1 0 0 1 1 0 0 1 1 0 1 0 0 0 1 1 1 1 1 1 0 0 0 1 1 0 0 0 0 0 0 0 1 0 1 1 1 0 1 0 1 1 1 1 1 1 0 1 1 0
    1       0    0 1 0 1 0 1 1 1 1 0 0 1 1 1 0 0 0 0 0 1 1 0 0 1 1
   12       2    0 0 1 1 1 1 0 1 0 1 0 1 0 1 0 0 0 1 1 1 0 0 0 1 0 1 0 0 0 0 1 0 1 0 1 0 1 1 0 1 0 1 0 0 1 1 1 1 1 1 0
    1       1    0 1 0 0 1 0 0 0 1 1 0 1 0 0 0 1 1 1 1 1 1 1 0 1 1 1 0 0 0 0 0 0 0 1 0 1 0 1 0 1 0 1 1 1 1 1 1 0 1 1 0
    1       0    0 1 0 1 0 1 1 1 0 0 0 0 1 1 0 0 1 0 0 1 1 0 0 1 1
   13       2    0 0 1 1 1 1 0 1 0 1 0 1 0 1 1 1 0 1 1 1 1 0 0 0 0 1 0 1 0 0 1 0 1 0 1 0 0 1 0 1 0 1 0 0 1 1 1 1 1 1 0
    1       1    0 1 0 0 1 1 0 0 1 0 1 1 1 0 0 1 1 1 1 1 0 1 0 0 1 1 0 0 0 0 0 0 0 0 1 0 1 1 0 0 0 1 1 1 1 1 1 0 1 1 0
    1       0    0 1 0 1 0 1 1 1 1 0 0 0 1 1 0 0 1 1 0 1 1 0 0 1 1
   14       2    0 0 1 1 1 1 0 1 0 1 0 1 0 1 0 0 1 1 0 1 1 0 0 1 0 1 1 0 0 0 1 0 1 0 1 0 1 1 0 1 0 1 0 0 1 1 1 1 1 1 0
    1       1    0 1 0 0 1 1 0 0 1 1 0 1 0 0 0 1 1 1 1 1 1 0 0 0 1 1 0 0 0 0 0 0 0 1 0 1 1 1 0 1 0 1 1 1 1 1 1 0 1 1 0
    1       0    0 1 0 1 0 1 1 1 1 0 0 1 1 1 0 0 0 0 0 1 1 0 0 1 1
   15       2    0 0 1 1 1 1 0 1 0 1 0 1 0 1 0 0 0 0 1 1 0 0 0 1 0 1 1 1 0 0 1 0 1 0 1 0 1 1 0 1 0 1 0 0 1 1 1 1 1 1 0
    1       1    0 1 0 0 1 0 0 0 1 1 0 1 0 0 0 0 1 1 1 1 0 1 0 0 1 1 0 0 0 0 0 0 0 1 1 0 1 1 0 1 0 1 1 1 1 1 1 0 1 1 0
    1       0    0 1 0 1 0 1 1 1 0 0 0 0 1 1 0 0 1 0 0 1 1 0 0 1 1
   16       2    0 0 1 1 1 1 0 1 0 1 0 1 1 0 0 0 0 1 1 1 1 0 0 0 0 1 0 0 0 0 1 0 1 0 1 0 1 1 0 1 0 1 0 0 1 1 1 1 1 1 0
    1       1    0 1 0 0 1 0 0 0 1 1 0 1 0 0 0 1 1 1 1 1 0 1 0 0 1 1 0 0 0 0 0 0 0 1 1 1 1 1 0 1 0 1 1 1 1 1 1 0 1 1 0
    1       0    0 1 0 1 0 1 1 1 0 0 0 0 1 1 1 0 0 0 0 1 1 0 0 1 1
   17       2    0 0 1 1 1 1 0 1 0 1 0 1 0 1 1 1 0 1 0 1 1 0 0 0 0 1 1 1 0 0 1 0 1 0 1 0 1 1 0 1 0 1 0 0 1 1 1 1 1 1 0
    1       1    0 1 0 0 1 1 0 0 1 0 0 1 1 0 0 1 1 1 1 1 0 1 0 0 1 1 0 0 0 0 0 0 0 0 1 0 1 1 0 0 0 1 1 1 1 1 1 0 1 1 0
    1       0    0 1 0 1 0 1 1 1 1 0 0 1 1 1 0 0 1 1 0 1 1 0 0 1 1
   18       2    0 0 1 1 1 1 0 1 0 1 0 1 0 1 0 0 1 1 0 1 0 0 0 0 0 1 1 0 0 0 1 0 1 0 1 0 1 1 0 1 0 1 0 0 1 1 1 1 1 1 0
    1       1    0 1 0 0 0 1 0 0 1 1 0 1 0 0 0 1 1 1 1 1 1 0 0 0 1 1 0 0 0 0 0 0 0 1 0 1 1 1 0 1 0 1 1 1 1 1 1 0 1 1 0
    1       0    0 1 0 1 0 1 1 1 0 0 0 1 1 1 0 0 1 0 0 1 1 0 0 1 1
   19       2    0 0 1 1 1 1 0 1 0 1 0 1 0 0 0 0 1 1 1 1 1 0 0 1 0 1 1 0 0 0 1 0 1 0 1 1 1 1 0 1 0 1 0 0 1 1 1 1 1 1 0
    1       1    0 1 0 0 1 1 1 0 1 1 0 1 0 0 0 1 1 1 1 1 0 0 0 0 1 1 0 0 0 0 0 0 0 1 1 1 1 1 1 1 0 1 1 1 1 1 1 0 1 1 0
    1       0    0 1 0 1 0 1 1 1 1 0 0 0 1 1 1 0 0 0 0 1 1 0 0 1 1
   20       2    0 0 1 1 1 1 0 1 0 1 0 1 0 1 0 0 0 1 1 1 0 0 0 1 0 1 0 0 0 0 1 0 1 0 1 0 1 1 0 1 0 1 0 0 1 1 1 1 1 1 0
    1       1    0 1 0 0 1 1 0 0 0 1 0 1 0 0 0 1 1 1 1 1 1 0 0 0 1 1 0 0 0 0 0 0 0 1 0 1 0 1 0 1 0 1 1 1 1 1 1 0 1 1 0
    1       0    0 1 0 1 0 1 1 1 0 0 0 0 1 1 0 0 0 0 0 1 1 0 0 1 1
   21       2    0 0 1 1 1 1 0 1 0 1 0 1 1 1 0 0 0 0 1 1 0 0 0 0 0 1 1 0 0 0 1 0 1 0 1 0 1 1 0 1 0 1 0 0 1 1 1 1 1 1 0
    1       1    1 1 0 0 1 0 0 0 1 1 0 1 1 0 0 0 1 1 1 1 1 1 0 0 1 1 0 0 0 0 0 0 0 1 0 1 1 1 0 1 0 1 1 1 1 1 1 0 0 1 0
    1       0    0 1 0 1 0 0 1 1 0 0 0 1 1 1 0 0 1 0 0 1 1 0 0 1 1
   22       2    0 0 1 1 1 1 0 1 0 1 0 1 1 0 0 1 0 0 1 1 1 0 0 0 0 1 0 0 1 0 1 0 1 0 1 0 1 1 0 1 0 1 0 0 1 1 1 1 1 1 0
    1       1    0 1 0 0 1 1 0 0 1 1 0 1 1 1 0 1 1 1 1 1 1 1 0 0 1 1 0 0 0 0 0 0 0 1 1 1 1 1 1 0 0 1 1 1 1 1 1 0 0 1 0
    1       0    0 1 0 1 1 0 1 1 0 0 0 0 1 1 0 0 0 0 0 1 1 0 0 1 1
   23       2    0 0 1 1 1 1 0 1 0 1 0 1 1 0 1 1 0 0 1 1 0 0 0 1 0 1 1 1 1 0 1 0 1 0 1 0 0 1 0 1 0 1 0 0 1 0 1 1 1 1 0
    1       1    1 0 0 0 0 0 0 0 1 1 0 1 1 0 0 1 1 0 1 1 0 1 0 0 1 1 0 0 0 0 0 0 0 0 1 0 1 1 0 0 0 1 1 1 1 0 1 1 0 1 0
    1       0    0 1 1 1 0 0 0 1 0 0 1 0 1 1 0 0 0 0 0 1 1 0 0 1 1
   24       2    0 0 1 1 1 1 0 1 0 1 0 1 1 0 0 0 0 1 1 1 1 0 0 0 0 1 1 0 0 0 1 0 1 0 1 1 1 1 0 1 0 1 0 0 1 1 1 1 1 1 0
    1       1    1 0 0 0 0 1 0 0 1 0 0 1 0 1 0 1 1 1 1 1 0 1 0 0 1 1 0 0 0 0 0 0 0 1 1 1 1 1 1 1 0 1 1 1 1 0 1 0 1 1 0
    1       0    0 1 1 1 0 0 1 1 0 0 0 0 1 1 0 0 1 0 0 1 1 0 0 1 1
   25       2    0 0 1 1 1 1 0 1 0 1 0 1 1 0 0 0 0 1 1 1 1 0 0 0 0 1 1 0 0 0 1 0 1 0 1 1 1 1 0 1 0 1 0 0 1 1 1 1 1 1 0
    1       1    1 0 0 0 0 1 0 0 1 0 0 1 0 1 0 1 1 1 1 1 0 1 0 0 1 1 0 0 0 0 0 0 0 1 1 1 1 1 1 1 0 1 1 1 1 0 1 0 1 1 0
    1       0    0 1 1 1 0 0 1 1 0 0 0 0 1 1 0 0 1 0 0 1 1 0 0 1 1
   26       2    0 0 1 1 1 1 0 1 0 1 0 1 1 0 1 1 0 1 1 1 1 0 0 0 0 1 1 1 1 0 1 0 1 0 1 1 0 1 0 1 0 1 0 0 1 1 1 1 1 1 0
    1       1    1 0 0 0 0 1 0 0 1 0 0 1 1 0 0 1 1 1 1 1 0 1 0 0 1 1 0 0 0 0 0 0 0 0 0 0 1 1 0 1 0 1 1 1 1 0 1 0 1 1 0
    1       0    0 1 1 1 0 0 1 1 0 0 0 0 1 1 0 0 1 1 0 1 1 0 0 1 1
   27       2    0 0 1 1 1 1 0 1 0 1 0 1 1 0 0 0 0 1 1 1 1 0 0 0 0 1 1 0 0 0 1 0 1 0 1 1 1 1 0 1 0 1 0 0 1 1 1 1 1 1 0
    1       1    1 0 0 0 0 1 0 0 1 0 0 1 0 1 0 1 1 1 1 1 0 1 0 0 1 1 0 0 0 0 0 0 0 1 1 1 1 1 1 1 0 1 1 1 1 0 1 0 1 1 0
    1       0    0 1 1 1 0 0 1 1 0 0 0 0 1 1 0 0 1 0 0 1 1 0 0 1 1
   28       2    0 0 1 1 1 1 0 1 0 1 0 1 1 0 1 0 0 0 1 1 1 0 0 0 0 1 1 0 0 0 1 0 1 0 1 0 1 1 0 1 0 1 0 0 1 1 1 1 1 1 0
    1       1    1 0 0 0 0 1 0 0 1 0 0 1 1 1 0 1 1 1 1 1 0 1 0 0 1 1 0 0 0 0 0 0 0 1 1 1 0 1 1 1 1 1 1 1 1 0 1 0 1 1 0
    1       0    0 1 1 1 0 0 1 1 0 0 0 0 1 1 0 0 1 0 0 1 1 0 0 1 1
   29       2    0 0 1 1 1 1 0 1 0 1 0 1 1 0 0 1 0 1 1 1 0 0 0 0 0 1 1 0 0 0 1 0 1 0 1 1 0 1 0 1 0 1 0 0 1 1 1 1 1 1 0
    1       1    1 0 0 0 0 1 0 0 1 1 0 1 0 0 0 1 1 0 1 1 0 1 0 0 1 1 0 0 0 0 0 0 0 1 1 0 1 1 1 0 0 1 1 1 1 0 1 0 1 1 0
    1       0    0 1 1 1 0 0 1 1 0 0 1 0 1 1 0 0 0 0 0 1 1 0 0 1 1
   30       2    0 0 1 1 1 1 0 1 0 1 0 1 0 0 0 0 0 1 1 1 1 0 0 0 0 1 1 0 0 0 1 0 1 0 1 1 1 1 0 1 0 1 0 0 1 1 1 1 1 1 0
    1       1    1 0 0 0 0 1 0 0 1 0 0 1 0 1 0 1 0 1 1 1 0 1 0 0 1 1 0 0 0 0 0 0 1 1 1 1 1 1 1 1 0 1 1 1 1 0 1 0 1 1 0
    1       0    0 1 1 1 0 0 1 1 0 0 0 0 1 1 0 0 1 0 0 1 1 0 0 1 1
   31       2    0 0 1 1 1 1 0 1 0 1 0 1 1 0 1 0 0 0 1 1 1 0 0 0 0 1 1 0 0 0 1 0 1 0 1 1 1 1 0 1 0 1 0 0 1 1 1 1 1 1 0
    1       1    1 0 0 0 0 1 0 0 1 1 0 1 0 1 0 1 1 1 1 1 0 1 0 0 1 1 0 0 0 0 0 0 0 1 1 0 1 1 1 1 1 1 1 1 1 0 1 0 1 1 0
    1       0    0 1 1 1 0 0 1 1 0 0 1 0 1 1 0 0 1 0 0 1 1 0 0 1 1
   32       2    0 0 1 1 1 1 0 1 0 1 0 1 1 0 0 1 0 1 1 1 0 0 0 0 0 1 1 0 0 0 1 0 1 0 1 0 0 1 0 1 0 1 0 0 1 1 1 1 1 1 0
    1       1    1 0 0 0 0 1 0 0 1 0 0 1 1 0 0 1 1 0 1 1 0 1 0 0 1 1 0 0 0 0 0 0 0 1 1 1 0 1 1 0 0 1 1 1 1 0 1 0 1 1 0
    1       0    0 1 1 1 0 0 1 1 0 0 0 0 1 1 0 0 0 0 0 1 1 0 0 1 1
   33       2    0 0 1 1 1 1 0 1 0 1 0 1 1 0 0 0 0 1 1 1 1 0 0 0 0 1 1 0 0 0 1 0 1 0 1 1 1 1 0 1 0 1 0 0 1 1 1 1 1 1 0
    1       1    1 0 0 0 0 1 0 0 1 0 0 1 0 1 0 1 1 1 1 1 0 1 0 0 1 1 0 0 0 0 0 0 0 1 1 1 1 1 1 0 0 1 1 1 1 0 1 0 1 1 0
    1       0    0 1 1 1 0 0 1 1 0 0 1 0 1 1 0 0 0 0 0 1 1 0 0 1 1
   34       2    0 0 1 1 1 1 0 1 0 1 0 1 1 0 0 1 0 1 1 1 1 0 0 0 0 1 1 0 0 0 1 0 1 0 1 1 1 1 0 1 0 1 0 0 1 1 1 1 1 1 0
    1       1    1 0 0 0 0 1 0 1 1 0 0 1 1 1 0 1 1 1 1 1 0 1 0 0 1 1 0 0 0 0 0 0 0 0 1 1 1 1 1 0 0 1 1 1 1 0 1 0 1 1 0
    1       0    0 1 1 1 0 0 1 1 0 0 0 0 1 1 0 0 1 0 0 1 1 0 0 1 1
   35       2    0 0 1 1 1 1 0 1 0 1 0 1 0 0 1 1 0 1 0 1 0 0 0 0 0 1 1 0 0 0 1 0 1 0 1 0 1 1 0 1 0 1 0 0 1 1 1 1 1 1 0
    1       1    0 1 0 0 1 0 0 0 1 0 0 1 0 0 0 1 1 1 1 1 0 1 0 0 1 1 0 0 0 0 0 0 0 0 1 0 1 1 0 0 0 1 1 1 1 0 1 0 1 1 0
    1       0    0 1 1 1 0 1 1 1 0 0 0 0 1 1 0 0 1 0 0 1 1 0 0 1 1
   36       2    0 0 1 1 1 1 0 1 0 1 0 1 0 0 0 1 1 1 0 1 0 0 0 0 0 1 1 0 0 0 1 0 1 0 1 0 1 1 0 1 0 1 0 0 1 1 1 1 1 1 0
    1       1    0 1 0 0 1 1 0 0 1 1 0 1 0 0 0 1 1 1 1 1 0 1 0 0 1 1 0 0 0 0 0 0 0 0 1 1 1 1 0 1 0 1 1 1 1 0 1 0 1 1 0
    1       0    0 1 1 1 0 1 1 1 0 0 0 0 1 1 0 0 1 0 0 1 1 0 0 1 1
   37       2    0 0 1 1 1 1 0 1 0 1 0 1 0 0 1 1 0 1 0 1 0 0 0 0 0 1 1 0 0 0 1 0 1 0 1 0 1 1 0 1 0 1 0 0 1 1 1 1 1 1 0
    1       1    0 1 0 0 1 0 0 0 1 0 0 1 0 0 0 1 1 1 1 1 0 1 0 0 1 1 0 0 0 0 0 0 0 0 1 0 1 1 0 0 0 1 1 1 1 0 1 0 1 1 0
    1       0    0 1 1 1 0 1 1 1 0 0 0 0 1 1 0 0 1 0 0 1 1 0 0 1 1
   38       2    0 0 1 1 1 1 0 1 0 1 0 1 0 0 1 1 0 1 0 1 0 0 0 0 0 1 1 0 0 0 1 0 1 0 1 0 1 1 0 1 0 1 0 0 1 1 1 1 1 1 0
    1       1    0 1 0 0 1 0 0 0 1 0 0 1 0 0 0 1 1 1 1 1 0 1 0 0 1 1 0 0 0 0 0 0 0 0 1 0 1 1 0 0 0 1 1 1 1 0 1 0 1 1 0
    1       0    0 1 1 1 0 1 1 1 0 0 0 0 1 1 0 0 1 0 0 1 1 0 0 1 1
   39       2    0 0 1 1 1 1 0 1 0 1 0 1 1 0 1 1 0 1 1 1 0 0 0 0 0 1 1 0 0 0 1 0 1 0 1 1 1 1 0 1 0 1 0 0 1 1 1 1 1 1 0
    1       1    0 1 0 0 0 1 0 0 1 0 0 1 0 0 0 1 1 1 1 1 0 1 0 0 1 1 0 0 0 0 0 0 0 1 1 0 1 1 1 0 0 1 1 1 1 0 1 0 1 1 0
    1       0    0 1 1 1 0 1 1 1 0 0 0 0 1 0 0 0 1 0 0 1 1 0 0 1 1
   40       2    0 0 1 1 1 1 0 1 0 1 0 1 0 0 0 1 0 1 0 1 0 0 0 0 0 1 1 0 0 0 1 0 1 0 1 0 1 1 0 1 0 1 0 0 1 1 1 1 1 1 0
    1       1    0 1 0 0 1 0 0 0 0 0 0 1 1 0 0 1 1 1 1 1 0 1 0 0 1 1 0 0 0 0 0 0 0 0 1 0 1 1 0 0 0 1 1 1 1 0 1 0 1 1 0
    1       0    0 1 1 1 0 1 1 1 0 0 0 0 1 1 0 0 1 0 0 1 1 0 0 1 1
   41       2    0 0 1 1 1 1 0 1 0 1 0 1 1 0 0 1 0 1 0 1 0 0 0 0 0 1 1 0 0 0 1 0 1 0 1 1 1 1 0 1 0 1 0 0 1 1 1 1 1 1 0
    1       1    0 1 0 0 1 1 0 0 1 0 1 1 0 0 0 1 1 1 1 1 0 1 0 0 1 1 0 0 0 0 0 0 0 1 1 0 1 1 0 0 0 1 1 1 1 0 1 0 1 1 0
    1       0    0 1 1 1 0 1 1 1 0 0 0 0 1 1 0 0 1 0 0 1 1 0 0 1 1
   42       2    0 0 1 1 1 1 0 1 0 1 0 1 1 1 1 1 0 1 0 1 1 0 0 1 0 1 1 0 0 1 1 0 1 0 1 0 1 1 0 1 0 1 0 0 1 1 1 1 1 1 0
    1       1    0 1 0 0 0 1 0 0 1 1 0 1 0 0 0 1 1 1 1 1 0 1 0 0 1 1 0 0 0 0 0 0 1 1 1 0 1 1 0 1 0 1 1 1 1 0 1 0 1 1 0
    1       0    0 1 1 1 0 1 1 1 0 0 0 1 1 0 0 0 1 0 0 1 1 0 0 1 1
   43       2    0 0 1 1 1 1 0 1 0 1 0 1 0 0 0 1 0 1 0 1 0 0 0 0 0 1 1 0 0 0 1 0 1 0 1 0 1 1 0 1 0 1 0 0 1 1 1 1 1 1 0
    1       1    0 1 0 0 1 0 0 0 0 1 0 1 0 0 0 1 1 1 1 1 0 1 0 0 1 1 0 0 0 0 0 0 0 0 1 1 1 1 0 1 0 1 1 1 1 0 1 0 1 1 0
    1       0    0 1 1 1 0 1 1 1 0 0 0 0 1 1 0 0 1 0 0 1 1 0 0 1 1
   44       2    0 0 1 1 1 1 0 1 0 1 0 1 0 0 1 1 0 1 0 1 0 0 0 0 0 1 1 0 0 0 1 0 1 0 1 0 1 1 0 1 0 1 0 0 1 1 1 1 1 1 0
    1       1    0 1 0 0 1 0 0 0 0 0 0 1 0 0 0 1 1 1 1 1 0 1 0 0 1 1 0 0 0 0 0 0 0 0 1 0 1 1 0 0 0 1 1 1 1 0 1 0 1 1 0
    1       0    0 1 1 1 0 1 1 1 0 0 0 0 1 1 0 0 1 0 0 1 1 0 0 1 1
   45       2    0 0 1 1 1 1 0 1 0 1 0 1 1 0 1 0 0 1 1 1 1 0 0 0 0 1 1 0 0 0 1 1 1 0 1 0 1 1 0 1 0 1 0 0 1 1 1 1 1 1 0
    1       1    0 1 0 0 1 1 0 0 1 0 0 1 0 0 0 1 1 1 1 1 0 1 1 0 1 1 0 0 0 0 0 0 0 1 1 1 1 1 1 0 0 1 1 1 1 0 1 0 1 1 0
    1       0    0 1 1 1 0 1 1 1 0 0 0 0 1 1 0 0 1 0 0 1 1 0 0 1 1
   46       2    0 0 1 1 1 1 0 1 0 1 0 1 0 0 0 1 0 1 0 1 0 0 0 0 0 1 1 0 0 0 1 0 1 0 1 0 1 1 0 1 0 1 0 0 1 1 1 1 1 1 0
    1       1    0 1 0 0 1 0 0 0 0 1 0 1 1 0 0 1 1 0 1 1 0 1 0 0 1 1 0 0 0 0 0 0 0 0 1 1 1 1 0 0 0 1 1 1 1 0 1 0 1 1 0
    1       0    0 1 1 1 0 1 1 1 0 0 0 0 1 1 0 0 1 0 0 1 1 0 0 1 1
   47       2    0 0 1 1 1 1 0 1 0 1 0 1 0 0 1 1 0 1 0 1 0 0 0 0 0 1 1 0 0 0 1 0 1 0 1 0 1 1 0 1 0 1 0 0 1 1 1 1 1 1 0
    1       1    0 1 0 0 1 0 0 0 1 1 0 1 0 0 0 1 1 1 1 1 0 1 0 0 1 1 0 0 0 0 0 0 0 0 1 0 1 1 0 0 0 1 1 1 1 0 1 0 1 1 0
    1       0    0 1 1 1 0 1 1 1 0 0 0 0 1 1 0 0 1 0 0 1 1 0 0 1 1
   48       2    0 0 1 1 1 1 0 1 0 1 0 1 0 0 0 1 1 1 0 1 0 0 0 0 0 1 1 0 0 0 1 0 1 0 1 0 1 1 0 1 0 1 0 0 1 1 1 1 1 1 0
    1       1    0 1 0 0 1 1 1 0 1 0 0 1 0 0 0 1 1 1 1 1 0 1 0 0 1 1 0 0 0 0 0 0 0 0 1 1 1 1 0 1 0 1 1 1 1 0 1 0 1 1 0
    1       0    0 1 1 1 0 1 1 1 0 0 0 0 1 1 0 0 1 0 0 1 1 0 0 1 1
   49       2    0 0 1 1 1 1 0 1 0 1 0 1 0 0 1 1 1 1 0 1 0 0 0 1 0 1 0 0 0 0 1 0 1 0 1 0 1 1 0 1 0 1 0 0 1 1 1 1 1 1 0
    1       1    0 1 0 0 1 1 0 1 1 1 0 1 0 0 0 1 1 1 1 1 0 1 0 1 1 1 0 0 0 0 0 0 0 0 1 1 0 1 0 0 0 1 1 1 1 0 1 0 1 1 0
    1       0    0 1 1 1 0 1 1 1 1 0 0 0 1 1 0 0 1 0 0 1 1 0 0 1 1
   50       2    0 0 1 1 1 1 0 1 0 1 0 1 1 0 1 1 1 0 0 1 0 0 0 0 0 1 1 0 0 0 1 0 1 0 1 0 1 1 0 1 0 1 0 0 1 1 1 1 1 1 0
    1       1    1 1 0 0 1 1 0 0 1 1 0 1 1 0 0 1 1 1 1 1 0 1 0 0 1 1 0 0 0 0 0 0 0 0 1 1 1 1 0 0 0 1 1 1 1 0 1 0 0 1 0
    1       0    0 1 1 1 0 0 1 1 0 0 0 0 1 1 0 0 1 0 0 1 1 0 0 1 1
   51       2    0 0 1 1 1 1 0 1 0 1 0 1 1 0 0 1 0 1 0 1 0 0 0 0 0 1 1 0 0 0 1 0 1 0 1 0 1 1 0 1 0 1 0 0 1 1 1 1 1 1 0
    1       1    1 1 0 0 1 1 0 0 1 0 0 1 0 1 0 1 1 1 1 1 0 1 0 0 1 1 0 0 0 0 0 0 0 0 1 1 0 1 1 1 1 1 1 1 1 0 1 0 0 1 0
    1       0    0 1 1 1 0 0 1 1 0 0 0 0 1 1 0 0 1 0 0 1 1 0 0 1 1
   52       2    0 0 1 1 1 1 0 1 0 1 0 1 0 0 0 1 0 1 1 1 0 0 0 1 0 1 1 1 0 0 1 0 1 0 0 0 0 1 0 1 0 1 0 0 1 1 1 1 1 1 0
    1       1    0 0 0 0 0 1 0 0 1 1 0 1 0 0 0 1 1 1 1 1 0 1 0 1 1 1 0 0 0 0 0 0 0 0 1 0 1 0 0 1 0 1 1 1 1 1 1 0 1 1 1
    1       0    0 1 0 1 1 0 1 1 0 0 1 0 1 1 0 0 1 0 0 1 1 0 0 1 1
   53       2    0 0 1 1 1 1 0 1 0 1 0 1 1 0 1 1 0 1 1 1 1 0 0 0 0 1 1 1 1 0 1 0 1 0 1 0 0 1 0 1 0 1 0 0 1 1 1 1 1 1 0
    1       1    1 1 0 0 0 0 0 0 1 0 0 1 1 0 0 1 1 0 1 0 1 1 0 0 1 1 0 0 0 0 0 0 0 0 1 0 1 1 1 0 0 1 1 1 1 0 1 0 0 1 1
    1       0    0 1 1 1 0 0 1 1 1 0 0 0 1 1 0 1 0 0 0 1 1 0 0 1 1
   54       2    0 0 1 1 1 1 0 1 0 1 0 1 0 0 1 1 0 1 1 1 1 0 0 0 0 1 1 1 0 0 1 0 1 0 1 0 0 1 0 1 0 1 0 0 1 1 1 1 1 1 0
    1       1    0 1 0 0 0 0 0 0 1 0 0 1 1 0 0 1 1 0 1 0 1 1 0 0 1 1 0 0 0 0 0 0 0 1 1 0 1 1 0 0 0 1 1 1 1 0 1 0 0 1 1
    1       0    0 1 1 1 1 0 1 1 1 0 0 0 1 1 0 0 0 0 0 1 1 0 0 1 1
   8800000.00000000        1618033.00000000       0.000000000000000E+000
  1.136363636363636E-007   6128126.00000000        2540149.00000000     
           1           3          34
   6423485.00000000        5093636.00000000        6128126.00000000     
   2876817.00000000        2955151.00000000        5250175.00000000     
   7483730.00000000        3676837.00000000        655453.000000000     
   3264596.00000000        723852.000000000        4524997.00000000     
   1577792.00000000        5160822.00000000        8669546.00000000     
   2163253.00000000        5668641.00000000        6785482.00000000     
   114861.000000000        7655744.00000000        3907954.00000000     
   1631689.00000000        2295032.00000000        6164022.00000000     
   2415291.00000000        6856978.00000000        8426545.00000000     
   5387381.00000000        8356481.00000000        2474740.00000000     
   4312976.00000000        2898619.00000000        8283413.00000000     
   809286.000000000        7330040.00000000        2227600.00000000     
   350041.000000000        4201690.00000000        5252858.00000000     
   1805738.00000000        4848139.00000000        4158552.00000000     
   7842840.00000000        2867416.00000000        7203366.00000000     
   6358578.00000000        3348475.00000000        8286002.00000000     
   7173612.00000000        1775826.00000000        5391476.00000000     
   2807711.00000000        4289058.00000000        3853233.00000000     
   7904570.00000000     
   8800000.00000000        1618033.00000000       0.000000000000000E+000
  1.136363636363636E-007   8550342.00000000        2129117.00000000     
           1           9          40
   4324858.00000000        8311529.00000000        3839213.00000000     
   2989039.00000000        4400295.00000000        5777288.00000000     
   2910797.00000000        5550124.00000000        8550342.00000000     
   7242483.00000000        6142515.00000000        5802786.00000000     
   5207352.00000000        6537388.00000000        7326511.00000000     
   1193568.00000000        2457532.00000000        1554130.00000000     
   2767809.00000000        2381698.00000000        3454913.00000000     
   5259293.00000000        7213569.00000000        5379036.00000000     
   7188902.00000000        1025673.00000000        6170894.00000000     
   5867353.00000000        6027185.00000000        7752608.00000000     
   4452111.00000000        8237084.00000000        5094901.00000000     
   4522140.00000000        6519601.00000000        1852550.00000000     
   844375.000000000        7005502.00000000        2565168.00000000     
   6591917.00000000        2791563.00000000        999201.000000000     
   4701878.00000000        2674279.00000000        7933084.00000000     
   2221784.00000000        4237124.00000000        19076.0000000000     
   3603911.00000000        4915116.00000000        5641332.00000000     
   3491459.00000000        6618980.00000000        6285089.00000000     
   566612.000000000     
   8800000.00000000        1618033.00000000       0.000000000000000E+000
  1.136363636363636E-007   4841756.00000000        8322469.00000000     
           1           3          34
   7129445.00000000        4494226.00000000        4841756.00000000     
   8634877.00000000        5014701.00000000        2070355.00000000     
   2677590.00000000        2643677.00000000        3200263.00000000     
   6097756.00000000        6832682.00000000        1848007.00000000     
   4653622.00000000        2083322.00000000        4504576.00000000     
   4147233.00000000        3151531.00000000        1357962.00000000     
   518741.000000000        3143614.00000000        3818494.00000000     
   7968869.00000000        1504052.00000000        2382562.00000000     
   7156631.00000000        4913288.00000000        3635835.00000000     
   7420691.00000000        6173061.00000000        4451810.00000000     
   195166.000000000        6665229.00000000        3467723.00000000     
   952806.000000000        781220.000000000        2404060.00000000     
   3874721.00000000        5804930.00000000        3874388.00000000     
   7707698.00000000        8330599.00000000        5860992.00000000     
   3255160.00000000        5760766.00000000        5308246.00000000     
   211808.000000000        5664655.00000000        6815422.00000000     
   7653792.00000000        5445686.00000000        5990166.00000000     
   4011931.00000000        7932348.00000000        3969223.00000000     
   1869320.00000000     
