          62          54   1.00000000000000     
    1       2    0 1 0 1 0 1 0 1 0 0 1 0 1 0 1 0 1 0 0 1 0 0 0 1 0 1 1 0 1 0 1 0 0 0 1 1 1 1 0 0 0 0 0 1 0 0 1 1 1 0 0
    1       0    0 1 1 0 0 0 1 1 1 0 0 0 0 1 0 0 0 0 0 0 1 0 0 1 1 1 0 0 0 0 0 0 1 0 0 1 0 1 0 0 0 1 1 1 1 0 1 0 1 1 1
    1       1    1 0 0 0 0 1 1 0 1 0 0 0 1 1 0 0 0 1 0 1 1 0 0 1 1
    2       2    0 1 0 1 0 0 0 1 0 0 1 0 1 0 1 0 1 0 1 0 1 0 0 1 0 0 1 0 1 0 0 0 0 1 0 1 1 1 0 0 0 0 0 1 0 0 1 1 1 0 0
    1       0    0 1 1 0 1 0 1 1 0 1 1 0 0 1 0 0 0 0 0 0 1 0 0 1 1 1 0 0 0 0 0 0 0 0 0 1 0 1 0 0 0 1 1 1 1 0 1 0 1 1 1
    1       1    1 0 0 0 0 1 1 0 1 0 0 0 1 1 0 0 0 1 0 1 1 0 0 1 1
    3       2    0 1 0 1 0 1 0 1 0 0 1 0 1 0 1 0 1 0 1 1 1 0 0 1 0 0 1 0 1 0 1 0 0 1 1 1 1 1 0 0 0 0 0 1 1 0 1 1 1 0 0
    1       0    0 1 1 0 0 0 1 1 0 1 1 0 0 1 0 0 0 0 0 0 1 0 0 1 1 1 0 0 0 0 0 0 0 0 0 1 0 1 0 0 0 1 1 1 1 0 1 0 0 1 1
    1       1    1 0 0 0 0 1 1 0 0 0 0 0 1 1 0 0 0 1 0 1 1 0 0 1 1
    4       2    0 1 0 1 0 1 0 1 0 0 1 0 1 0 1 0 1 0 1 1 1 0 0 1 0 0 1 0 1 0 1 0 0 1 1 1 1 1 0 0 0 0 0 1 1 0 1 1 1 0 0
    1       0    0 1 1 0 0 0 1 1 0 1 1 0 0 1 0 0 0 0 0 0 1 0 0 1 1 1 0 0 0 0 0 0 0 0 0 1 0 1 0 0 0 1 1 1 1 0 1 0 0 1 1
    1       1    1 0 0 0 0 1 1 0 0 0 0 0 1 1 0 0 0 1 0 1 1 0 0 1 1
    5       2    0 1 0 1 0 1 0 1 0 0 1 0 0 0 1 0 1 0 1 1 1 0 0 1 0 0 1 0 1 0 1 0 0 0 1 1 1 1 0 0 0 0 0 1 1 0 1 1 1 0 0
    1       0    0 1 1 0 0 0 1 1 1 1 0 0 0 1 0 0 0 0 0 0 1 1 0 1 1 1 0 0 0 0 0 0 0 0 0 0 1 1 0 0 0 1 1 1 1 0 1 0 0 1 1
    1       1    1 0 0 0 0 1 1 0 1 0 0 0 1 1 0 0 1 1 0 1 1 0 0 1 1
    6       2    0 1 0 1 0 1 0 1 0 0 1 0 1 0 1 0 1 0 1 1 1 0 0 1 0 0 1 0 1 0 1 0 0 1 1 1 1 1 0 0 0 0 0 1 1 0 1 1 1 0 0
    1       0    0 1 1 0 0 0 1 1 0 1 1 0 0 1 0 0 0 0 0 0 1 0 0 1 1 1 0 0 0 0 0 0 0 0 0 1 0 1 0 0 0 1 1 1 1 0 1 0 0 1 1
    1       1    1 0 0 0 0 1 1 0 0 0 0 0 1 1 0 0 0 1 0 1 1 0 0 1 1
    7       2    0 1 0 1 0 1 0 1 0 0 1 0 1 0 1 0 1 0 1 1 1 0 0 1 0 0 1 0 1 0 1 0 0 0 1 1 1 1 0 0 0 0 0 1 1 0 1 1 1 0 0
    1       0    0 1 1 0 0 0 1 1 1 1 0 0 0 1 0 0 0 0 0 0 0 0 0 1 1 1 0 0 0 0 0 0 1 0 0 1 0 1 0 0 0 1 1 1 1 0 1 0 0 1 1
    1       1    1 0 0 0 0 1 1 0 1 0 0 0 1 1 0 0 0 1 0 1 1 0 0 1 1
    8       2    0 1 0 1 0 1 0 1 0 0 1 0 1 0 1 0 1 0 1 1 1 0 0 1 0 0 1 0 1 0 1 0 0 0 1 1 1 1 0 0 0 0 0 1 1 0 1 1 1 0 0
    1       0    0 1 1 0 0 0 1 1 1 1 0 0 0 1 0 0 0 0 0 0 1 0 0 1 1 1 0 0 0 0 0 0 0 0 0 1 0 1 0 0 0 1 1 1 1 0 1 0 0 1 1
    1       1    1 0 0 0 0 1 1 0 1 0 0 0 1 1 0 0 0 1 0 1 1 0 0 1 1
    9       2    0 1 0 1 0 1 0 1 0 0 1 0 1 0 1 0 1 0 1 1 1 0 0 1 0 0 1 0 1 0 1 0 0 0 1 1 1 1 0 0 0 0 0 1 1 0 1 1 1 0 0
    1       0    0 1 1 0 0 0 1 1 1 1 0 0 0 1 0 0 0 0 0 0 1 0 0 1 1 1 0 0 0 0 0 0 0 0 0 1 0 1 0 0 0 1 1 1 1 0 1 0 0 1 1
    1       1    1 0 0 0 0 1 1 0 1 0 0 0 1 1 0 0 0 1 0 1 1 0 0 1 1
   10       2    0 1 0 1 0 1 0 1 0 0 1 0 0 0 1 0 1 0 1 1 0 0 0 1 0 0 1 0 1 0 1 0 0 0 0 0 1 1 0 0 0 0 0 1 1 0 1 1 1 0 0
    1       0    0 1 1 0 0 0 1 1 1 1 0 0 0 1 0 0 0 0 0 0 1 1 0 1 1 1 0 0 0 0 0 0 0 0 0 0 1 1 0 0 0 1 1 1 1 0 1 0 0 1 1
    1       1    1 0 0 0 0 1 1 0 1 0 0 0 1 1 0 0 1 1 0 1 1 0 0 1 1
   11       2    0 1 0 1 0 1 0 1 0 0 1 0 0 0 1 0 1 0 1 1 1 0 0 1 0 0 1 0 1 0 1 0 0 0 1 1 1 1 0 0 0 0 0 1 1 0 1 1 1 0 0
    1       0    0 1 1 0 0 0 1 1 1 1 0 0 0 1 0 0 0 0 0 0 1 1 0 1 1 1 0 0 0 0 0 0 0 0 0 0 1 1 0 0 0 1 1 1 1 0 1 0 0 1 1
    1       1    1 0 0 0 0 1 1 0 1 0 0 0 1 1 0 0 1 1 0 1 1 0 0 1 1
   12       2    0 1 0 1 0 1 0 1 0 0 1 0 1 0 1 0 1 0 1 1 1 0 0 1 0 0 1 0 1 0 1 0 0 1 1 1 1 1 0 0 0 0 0 1 1 0 1 1 1 0 0
    1       0    0 1 1 0 0 0 1 1 0 1 1 0 0 1 0 0 0 0 0 0 1 0 0 1 1 1 0 0 0 0 0 0 0 0 0 1 0 1 0 0 0 1 1 1 1 0 1 0 0 1 1
    1       1    1 0 0 0 0 1 1 0 0 0 0 0 1 1 0 0 0 1 0 1 1 0 0 1 1
   13       2    0 1 0 1 0 1 0 1 0 0 1 0 1 0 1 0 1 0 1 1 1 0 0 1 0 0 1 0 1 0 1 0 0 1 1 1 1 1 0 0 0 0 0 1 1 0 1 1 1 0 0
    1       0    0 1 1 0 0 0 1 1 0 1 1 0 0 1 0 0 0 0 0 0 1 0 0 1 1 1 0 0 0 0 0 0 0 0 0 1 0 1 0 0 0 1 1 1 1 0 1 0 0 1 1
    1       1    1 0 0 0 0 1 1 0 0 0 0 0 1 1 0 0 0 1 0 1 1 0 0 1 1
   14       2    0 1 0 1 0 1 0 1 0 0 1 0 0 0 1 0 1 0 1 1 1 0 0 1 0 0 1 0 1 0 1 0 0 1 1 1 1 1 0 0 0 0 0 1 1 0 1 1 1 0 0
    1       0    0 1 1 0 0 0 1 1 0 1 0 0 0 1 0 0 0 0 0 0 1 1 0 1 1 1 0 0 0 0 0 0 0 0 0 1 1 1 0 0 0 1 1 1 1 0 1 0 0 1 1
    1       1    1 0 0 0 0 1 1 0 1 0 0 0 1 1 0 0 0 1 0 1 1 0 0 1 1
   15       2    0 1 0 1 0 1 0 1 0 0 1 0 1 0 1 0 1 0 1 1 1 0 0 1 0 0 1 0 1 0 1 0 0 1 1 1 1 1 0 0 0 0 0 1 1 0 1 1 1 0 0
    1       0    0 1 1 0 0 0 1 1 0 1 1 0 0 1 0 0 0 0 0 0 1 0 0 1 1 1 0 0 0 0 0 0 0 0 0 1 0 1 0 0 0 1 1 1 1 0 1 0 0 1 1
    1       1    1 0 0 0 0 1 1 0 0 0 0 0 1 1 0 0 0 1 0 1 1 0 0 1 1
   16       2    0 1 0 1 0 1 0 1 0 0 1 0 1 0 1 0 1 0 1 1 1 0 0 1 0 0 1 0 1 0 1 0 0 1 1 1 1 1 0 0 0 0 0 1 1 0 1 1 1 0 0
    1       0    0 1 1 0 0 0 1 1 0 1 1 0 0 1 0 0 0 0 0 0 1 0 0 1 1 1 0 0 0 0 0 0 0 0 0 1 0 1 0 0 0 1 1 1 1 0 1 0 0 1 1
    1       1    1 0 0 0 0 1 1 0 0 0 0 0 1 1 0 0 0 1 0 1 1 0 0 1 1
   17       2    0 1 0 1 0 1 0 1 0 0 1 0 1 0 1 0 1 0 1 1 0 1 0 1 0 0 1 0 1 0 1 0 0 0 1 0 1 1 0 0 0 0 0 1 1 0 1 1 1 0 0
    1       0    0 1 1 0 0 0 1 1 1 0 1 0 0 1 0 0 0 0 0 0 0 0 0 1 1 1 0 0 0 0 0 0 1 0 0 1 0 1 0 0 0 1 1 1 1 0 1 0 0 1 1
    1       1    1 0 0 0 0 1 1 0 1 0 0 0 1 1 0 0 0 1 0 1 1 0 0 1 1
   18       2    0 1 0 1 0 1 0 1 0 0 1 0 1 0 1 0 1 0 1 1 1 0 0 1 0 0 1 0 1 0 1 0 0 0 1 1 1 1 0 0 0 0 0 1 1 0 1 1 1 0 0
    1       0    0 1 1 0 0 0 1 1 0 1 1 0 0 1 0 0 0 0 0 0 1 0 0 1 1 1 0 0 0 0 0 0 0 0 0 1 0 1 0 0 0 1 1 1 1 0 1 0 0 1 1
    1       1    1 0 0 0 0 1 1 0 1 0 0 0 1 1 0 0 0 1 0 1 1 0 0 1 1
   19       2    0 1 0 1 0 1 0 1 0 0 1 0 1 0 1 0 1 0 1 1 0 0 0 1 0 0 1 0 1 0 1 0 0 0 1 1 1 1 0 0 0 0 0 1 1 0 1 1 1 0 0
    1       0    0 1 1 0 0 0 1 1 1 1 0 0 0 1 0 0 0 0 0 0 0 0 0 1 1 1 0 0 0 0 0 0 1 0 0 1 1 1 0 0 0 1 1 1 1 0 1 0 0 1 0
    1       1    1 0 0 0 0 1 1 1 1 0 0 0 1 1 0 0 0 1 0 1 1 0 0 1 1
   20       2    0 1 0 1 0 1 0 1 0 0 1 0 1 0 1 0 1 0 1 1 0 0 0 1 0 0 1 0 1 0 0 0 0 0 1 0 1 1 0 0 0 0 0 1 0 0 1 1 1 0 0
    0       0    0 1 1 0 0 0 1 1 1 1 1 0 0 1 0 0 0 0 0 0 0 1 1 1 1 1 0 0 0 0 0 0 0 0 0 1 1 1 0 1 0 1 1 1 1 0 1 0 1 1 1
    1       1    1 0 1 0 0 1 1 0 1 0 0 0 1 1 0 0 0 1 0 1 1 0 0 1 1
   21       2    0 1 0 1 0 1 0 1 0 0 1 0 1 0 1 0 1 0 0 1 0 0 0 1 0 0 0 0 1 0 1 0 0 0 1 0 1 1 0 0 0 0 0 1 1 0 1 1 1 0 0
    1       0    0 1 0 0 0 0 0 1 1 1 1 0 0 1 0 0 1 0 0 0 1 1 0 1 1 1 0 0 0 0 0 1 1 0 0 0 1 0 0 0 1 1 1 1 0 1 1 1 0 1 1
    1       1    1 0 1 0 0 0 0 0 1 0 0 0 1 1 0 0 0 0 0 1 1 0 0 1 1
   22       2    0 1 0 1 0 1 0 1 0 0 1 0 1 0 1 1 1 0 0 1 0 0 0 1 0 0 1 0 1 0 0 0 0 0 1 0 1 1 0 0 0 0 0 1 1 0 1 1 1 0 0
    1       0    0 1 0 0 0 0 0 1 1 1 1 0 0 1 0 1 1 1 0 0 1 1 0 1 1 1 0 0 0 0 0 0 1 0 0 0 0 0 0 0 1 1 1 1 0 1 1 1 0 1 1
    1       1    1 0 1 0 0 0 0 0 1 0 0 0 1 1 0 0 0 1 0 1 1 0 0 1 1
   23       2    0 1 0 1 0 1 0 1 0 0 1 0 1 0 1 0 1 0 0 0 0 0 0 1 0 0 1 0 1 0 0 0 0 0 0 0 1 1 0 0 0 0 0 1 0 1 1 1 1 0 0
    1       0    0 1 0 0 1 0 1 1 0 1 0 0 0 1 0 0 0 0 0 0 0 1 1 1 1 1 0 0 0 0 0 1 1 0 0 1 1 1 0 1 1 1 1 1 0 1 1 0 1 1 1
    1       1    1 0 1 0 0 1 1 0 1 0 0 0 1 1 0 0 0 1 0 1 1 0 0 1 1
   24       2    0 1 0 1 0 1 0 1 0 0 1 0 1 0 1 0 1 0 0 0 0 0 0 1 0 0 1 0 1 0 0 0 0 0 0 0 1 1 0 0 0 0 0 1 0 1 1 1 1 0 0
    1       0    0 1 0 0 1 0 1 1 0 1 0 0 0 1 0 0 0 0 0 0 0 1 1 1 1 1 0 0 0 0 0 1 1 0 0 1 1 1 0 1 1 1 1 1 0 1 1 0 1 1 1
    1       1    1 0 1 0 0 1 1 0 1 0 0 0 1 1 0 0 0 1 0 1 1 0 0 1 1
   25       2    0 1 0 1 0 1 0 1 0 0 1 0 1 0 1 0 1 0 0 0 0 0 0 1 0 0 1 0 1 0 0 0 0 0 0 0 0 1 0 0 0 0 0 1 0 1 1 1 1 0 0
    1       0    0 1 0 0 1 0 1 1 0 1 0 0 0 1 0 0 0 0 0 0 0 1 1 1 1 1 0 0 0 0 0 1 1 0 0 1 1 1 0 1 0 1 1 1 0 1 1 0 1 1 1
    1       1    1 0 1 0 0 1 1 0 1 0 0 0 1 1 0 0 0 1 0 1 1 0 0 1 1
   26       2    0 1 0 1 0 1 0 1 0 0 1 0 1 0 1 0 1 0 0 0 0 0 0 1 0 0 1 0 1 0 1 0 0 0 1 0 1 1 0 0 0 0 0 1 0 1 1 1 1 0 0
    1       0    0 1 0 0 1 0 1 1 0 1 1 0 0 1 0 0 0 0 0 0 0 1 1 1 1 1 0 0 0 0 0 1 1 0 0 1 1 1 0 1 0 1 1 1 0 1 1 0 1 1 1
    1       1    1 0 1 0 0 1 1 0 1 0 0 0 1 1 0 0 0 1 0 1 1 0 0 1 1
   27       2    0 1 0 1 0 1 0 1 0 0 1 0 1 0 1 0 1 0 0 0 0 0 0 1 0 0 1 0 1 0 0 0 0 0 0 0 0 1 0 0 0 0 0 1 0 1 1 1 1 0 0
    1       0    0 1 0 0 1 0 1 1 0 1 0 0 0 1 0 0 1 0 1 0 0 1 1 1 1 1 0 0 0 0 0 1 1 0 0 1 1 1 0 1 0 1 1 1 0 1 1 0 1 1 1
    1       1    1 0 1 0 0 1 1 0 1 0 0 0 1 1 0 0 0 1 0 1 1 0 0 1 1
   28       2    0 1 0 1 0 1 0 1 0 0 1 0 1 0 1 0 1 0 0 0 0 0 0 1 0 0 1 0 1 0 1 0 0 0 0 0 1 1 0 0 0 0 0 1 0 1 1 1 1 0 0
    1       0    0 1 0 0 1 0 1 1 0 1 1 0 0 1 0 0 0 0 0 0 0 1 1 1 1 1 0 0 0 0 0 1 1 0 0 1 1 1 0 1 0 1 1 1 0 1 1 0 1 1 1
    1       1    1 0 1 0 0 1 1 0 1 0 0 0 1 1 0 0 0 1 0 1 1 0 0 1 1
   29       2    0 1 0 1 0 1 0 1 0 0 1 0 1 0 1 0 1 0 0 0 0 0 0 1 0 0 1 0 1 0 1 0 0 0 0 0 1 1 0 0 0 0 0 1 0 1 1 1 1 0 0
    1       0    0 1 0 0 1 0 1 1 0 1 1 0 0 1 0 0 1 0 1 0 0 1 1 1 1 1 0 0 0 0 0 1 1 0 0 1 1 1 0 1 0 1 1 1 0 1 1 0 1 1 1
    1       1    1 0 1 0 0 1 1 0 1 0 0 0 1 1 0 0 0 1 0 1 1 0 0 1 1
   30       2    0 1 0 1 0 1 0 1 0 0 1 0 1 0 1 0 1 0 0 0 0 0 0 1 1 0 1 0 1 0 0 0 0 0 0 0 0 1 0 0 0 0 0 1 0 1 1 1 1 0 0
    1       0    0 1 0 0 1 0 1 1 0 1 0 0 0 1 0 0 0 0 0 0 0 1 1 1 1 1 0 0 0 0 0 1 1 0 1 1 1 1 0 1 0 1 1 1 0 1 1 0 1 1 1
    1       1    1 0 1 0 0 1 1 0 1 0 0 0 1 1 0 0 0 1 0 1 1 0 0 1 1
   31       2    0 1 0 1 0 1 0 1 0 0 1 0 1 0 1 0 0 0 0 0 0 0 0 1 0 0 1 0 1 0 1 0 0 0 0 0 1 1 0 0 0 0 0 1 0 1 1 1 1 0 0
    1       0    0 1 0 0 1 0 0 1 0 1 1 0 0 1 0 0 0 0 0 0 0 1 1 1 1 1 0 0 0 0 0 1 1 0 1 1 1 1 0 1 0 1 1 1 0 1 1 0 1 1 1
    1       1    1 0 1 0 0 1 1 0 1 0 0 0 1 1 0 0 0 1 0 1 1 0 0 1 1
   32       2    0 1 0 1 0 1 0 1 0 0 1 0 1 0 1 0 1 0 0 1 0 0 0 1 0 0 1 0 1 0 1 0 0 0 1 0 1 1 0 0 0 0 0 1 0 0 1 1 1 0 0
    1       0    0 1 1 0 0 0 1 1 0 1 0 0 0 1 0 0 0 0 0 0 1 0 0 1 1 1 0 0 0 0 0 0 1 0 0 1 0 1 0 1 0 1 1 1 0 1 1 0 1 1 1
    1       1    1 0 1 0 0 1 1 0 1 0 0 0 1 1 0 0 0 1 0 1 1 0 0 1 1
   33       2    0 1 0 1 0 1 0 1 0 0 1 0 1 0 1 0 1 0 0 1 1 0 0 1 0 0 1 0 1 0 1 0 0 0 0 0 1 1 0 0 0 0 0 1 0 0 1 1 1 0 0
    1       0    0 1 1 0 0 0 1 1 1 1 0 0 0 1 0 0 0 0 0 0 1 0 0 1 1 1 0 0 0 0 0 0 0 0 0 0 0 1 0 1 1 1 1 1 0 1 1 0 1 1 1
    1       1    1 0 1 0 0 1 1 0 1 0 0 0 1 1 0 0 0 1 0 1 1 0 0 1 1
   34       2    0 1 0 1 0 1 0 1 0 0 1 0 1 0 1 0 1 0 0 0 1 0 0 1 0 0 1 0 1 0 0 0 0 0 0 0 1 1 0 0 0 0 0 1 0 0 1 1 1 0 0
    1       0    0 1 1 0 1 0 1 1 0 1 0 0 0 1 0 0 0 0 0 0 1 0 1 1 1 1 0 0 0 0 0 1 0 0 0 1 0 1 0 1 1 1 1 1 0 1 1 0 1 1 1
    1       1    1 0 1 0 0 1 1 0 1 0 0 0 1 1 0 0 0 1 0 1 1 0 0 1 1
   35       2    0 1 0 1 0 1 0 1 0 0 1 0 1 0 1 0 1 0 0 1 0 0 0 1 0 0 1 0 1 0 1 0 0 0 1 0 1 1 0 0 0 0 0 1 0 0 1 1 1 0 0
    1       0    0 1 1 0 0 0 1 1 0 1 1 0 0 1 0 0 0 0 0 0 0 1 1 1 1 1 0 0 0 0 0 1 1 0 0 1 1 1 0 1 0 1 1 1 0 1 1 0 1 1 1
    1       1    1 0 1 0 0 1 1 0 1 0 0 0 1 1 0 0 0 1 0 1 1 0 0 1 1
   36       2    0 1 0 1 0 1 0 1 0 0 1 0 1 0 1 0 0 0 0 1 0 0 0 1 0 0 1 0 1 0 1 0 0 0 1 0 1 1 0 0 0 0 0 1 0 0 1 1 1 0 0
    1       0    0 1 1 0 0 0 1 0 0 0 0 0 0 1 0 0 1 0 0 0 1 1 0 1 1 1 0 0 0 0 0 0 1 0 0 1 0 1 0 1 0 1 1 1 0 1 1 0 1 1 1
    1       1    1 0 1 0 0 1 1 0 1 0 0 0 1 1 0 0 1 1 0 1 1 0 0 1 1
   37       2    0 1 0 1 0 1 0 1 0 0 1 0 1 0 1 0 1 0 0 1 0 0 0 1 0 0 1 0 1 0 1 0 0 0 1 0 1 1 0 0 0 0 0 1 0 0 1 1 1 0 0
    1       0    0 1 1 0 0 0 1 0 0 0 0 0 0 1 0 0 1 0 0 0 1 1 0 1 1 1 0 0 0 0 0 0 1 0 0 1 0 1 0 1 0 1 1 1 0 1 1 0 1 1 1
    1       1    1 0 1 0 0 1 1 0 1 0 0 0 1 1 0 0 1 1 0 1 1 0 0 1 1
   38       2    0 1 0 1 0 1 0 1 0 0 1 0 1 0 1 0 1 0 0 1 0 0 0 1 0 0 1 0 1 0 1 1 0 0 1 0 1 1 0 0 0 0 0 1 1 0 1 1 1 0 0
    1       0    0 1 0 0 0 0 1 1 1 1 1 0 0 1 0 0 0 0 0 0 0 1 0 1 1 1 0 0 0 0 0 0 1 0 0 1 0 1 0 0 0 1 1 1 0 1 1 0 1 0 1
    1       1    1 0 1 0 0 1 1 0 1 0 0 0 1 1 0 0 0 0 0 1 1 0 0 1 1
   39       2    0 1 0 1 0 1 0 1 0 0 1 0 1 0 1 0 0 0 0 1 0 0 0 1 0 0 1 0 1 0 1 1 0 0 1 0 1 1 0 0 0 0 0 1 1 0 1 1 1 0 0
    1       0    0 1 0 0 0 0 1 1 1 1 0 0 0 1 0 0 0 0 0 0 0 1 0 1 1 1 0 0 0 0 0 0 1 0 0 1 1 1 1 1 0 1 1 1 0 1 1 0 1 0 1
    1       1    1 0 1 0 0 1 1 0 1 0 0 1 1 1 0 0 0 1 0 1 1 0 0 1 1
   40       2    0 1 0 1 0 1 0 1 0 0 1 0 1 0 1 0 1 0 0 0 0 0 0 1 0 0 1 0 1 0 0 0 0 0 1 0 1 1 0 0 0 0 0 1 1 0 1 1 1 0 0
    1       0    0 1 0 0 0 0 1 1 1 1 0 0 0 1 0 0 0 0 0 0 0 1 0 1 1 1 0 0 0 0 0 1 1 0 0 1 1 1 1 1 1 1 1 1 0 1 1 0 1 0 1
    1       1    1 0 1 0 0 1 1 0 1 0 0 0 1 1 0 0 0 1 0 1 1 0 0 1 1
   41       2    0 1 0 1 0 1 0 1 0 0 1 0 1 0 1 0 1 0 0 1 0 0 0 1 0 0 1 0 1 0 1 1 0 0 1 0 1 1 0 0 0 0 0 1 1 0 1 1 1 0 0
    1       0    0 1 0 0 0 0 1 1 1 1 1 0 0 1 0 0 0 0 0 0 0 1 0 1 1 1 0 0 0 0 0 0 1 0 0 1 0 1 0 0 0 1 1 1 0 1 1 0 1 0 1
    1       1    1 0 1 0 0 1 1 0 1 0 0 0 1 1 0 0 0 0 0 1 1 0 0 1 1
   42       2    0 1 0 1 0 1 0 1 0 0 1 0 1 0 1 0 1 0 0 1 0 0 0 1 0 0 1 0 1 0 1 1 0 0 1 0 1 1 0 0 0 0 0 1 1 0 1 1 1 0 0
    1       0    0 1 0 0 0 0 1 1 1 1 1 0 0 1 0 0 0 0 0 0 0 1 0 1 1 1 0 0 0 0 0 0 1 0 0 1 1 1 1 1 0 1 1 1 0 1 1 0 1 0 1
    1       1    1 0 1 0 0 1 1 0 1 0 0 0 1 1 0 0 0 1 0 1 1 0 0 1 1
   43       2    0 1 0 1 0 1 0 1 0 0 1 0 1 0 1 0 1 0 1 1 0 1 0 0 0 0 1 0 1 1 1 0 0 0 1 0 1 1 0 0 0 0 0 1 1 1 1 1 1 0 0
    1       0    0 1 0 0 0 0 1 1 1 1 1 0 0 1 0 0 0 0 0 0 0 1 0 1 1 1 0 0 0 0 0 0 1 0 0 1 1 1 0 1 0 1 1 1 0 1 1 0 0 1 1
    1       1    1 0 1 0 0 1 1 0 1 0 1 0 1 1 0 1 0 1 0 1 1 0 0 1 1
   44       2    0 1 0 1 0 1 0 1 0 0 1 0 1 0 1 0 1 0 1 1 0 1 0 1 0 0 1 0 1 1 1 0 0 0 1 0 1 1 0 0 0 0 0 1 1 1 1 1 1 0 0
    1       0    0 1 0 0 0 0 1 1 1 1 1 1 0 1 0 0 0 0 0 0 1 1 0 1 1 1 0 0 0 0 0 0 1 0 0 1 1 1 0 1 0 1 1 1 0 1 1 0 0 1 1
    1       1    1 0 1 0 0 1 1 0 1 0 1 0 1 1 0 1 0 0 0 1 1 0 0 1 1
   45       2    0 1 0 1 0 1 0 1 0 0 1 0 1 0 1 0 1 0 1 1 0 0 0 0 0 0 1 0 1 0 1 0 0 0 1 0 1 1 0 0 0 0 0 1 1 1 1 1 1 0 0
    1       0    0 1 0 0 0 0 1 1 1 1 1 0 0 1 1 0 0 0 0 0 1 1 0 1 1 1 0 0 0 0 0 0 1 0 0 1 1 1 0 1 0 1 1 1 0 1 1 0 0 1 1
    1       1    1 0 1 0 0 1 1 0 1 0 1 1 1 1 0 0 0 1 0 1 1 0 0 1 1
   46       2    0 1 0 1 0 1 0 1 0 0 1 0 1 0 0 1 1 0 1 1 1 0 0 1 0 0 1 0 1 1 1 1 0 0 1 0 1 1 0 0 0 0 0 1 1 1 1 1 1 0 0
    1       0    0 1 0 0 0 0 1 1 1 1 1 0 0 1 0 0 0 0 0 0 0 1 0 1 1 1 0 0 0 0 0 0 1 0 0 1 1 1 1 1 0 1 1 1 0 1 1 0 0 1 1
    1       1    1 0 1 0 0 1 1 0 1 0 0 0 1 1 0 0 0 0 0 1 1 0 0 1 1
   47       2    0 1 0 1 0 1 0 1 0 0 1 0 1 0 1 1 1 0 0 1 1 0 0 1 0 0 1 0 1 1 1 1 0 0 1 0 1 1 0 0 0 0 0 1 1 1 1 1 1 0 0
    1       0    0 1 1 0 0 0 0 1 1 1 1 0 0 1 0 0 1 0 0 0 0 1 0 1 1 1 0 0 0 0 0 0 1 0 0 1 1 1 1 0 1 1 1 1 0 1 1 0 0 1 1
    1       1    1 0 1 0 0 1 0 0 1 0 0 0 1 1 0 0 0 0 0 1 1 0 0 1 1
   48       2    0 1 0 1 0 1 0 1 0 0 1 0 1 0 1 0 1 0 1 1 0 0 0 1 0 0 0 0 1 0 1 0 0 0 1 0 1 1 0 0 0 0 0 1 1 0 1 1 1 0 0
    1       0    0 1 1 0 0 0 1 1 1 0 1 1 0 1 0 0 0 0 0 0 0 1 0 1 1 1 0 0 0 0 0 0 1 0 0 0 1 1 0 1 0 1 1 1 0 1 1 0 0 1 1
    1       1    1 0 1 0 0 1 1 0 1 0 0 0 1 1 0 0 1 1 0 1 1 0 0 1 1
   49       2    0 1 0 1 0 1 0 1 0 0 1 0 1 0 1 0 1 0 0 1 0 0 0 1 0 0 1 0 1 0 1 0 0 0 0 0 1 1 0 0 0 0 0 1 1 0 1 1 1 0 0
    1       0    0 1 1 0 0 0 1 1 1 1 0 0 0 1 0 0 0 0 0 0 1 1 0 1 1 1 0 0 0 0 0 0 0 0 0 0 1 1 0 1 0 1 1 1 0 1 1 0 0 1 1
    1       1    1 0 1 0 0 1 1 0 1 0 0 0 1 1 0 0 1 1 0 1 1 0 0 1 1
   50       2    0 1 0 1 0 1 0 1 0 0 1 0 1 0 1 0 1 0 0 1 0 0 0 1 0 0 1 0 1 0 0 0 0 0 1 0 1 1 0 0 0 0 0 1 1 0 1 1 1 0 0
    1       0    0 1 1 0 0 0 1 1 1 1 1 0 0 1 0 0 1 0 0 0 0 1 1 1 1 1 0 0 0 0 0 0 1 0 0 0 1 1 0 1 1 1 1 1 0 1 1 0 0 1 1
    1       1    1 0 1 0 0 1 1 0 1 0 0 0 1 1 0 0 1 1 0 1 1 0 0 1 1
   51       2    0 1 0 1 0 1 0 1 0 0 1 0 1 0 1 0 1 0 1 0 0 0 0 1 0 0 1 0 1 0 1 0 0 0 1 1 1 1 0 0 0 0 0 1 1 0 1 1 1 0 0
    1       0    0 1 1 0 0 0 1 1 1 1 0 0 0 1 0 0 0 0 0 0 1 1 1 1 1 1 0 0 0 0 0 0 0 0 0 0 1 1 0 0 1 1 1 1 0 1 1 0 0 1 1
    1       1    1 0 1 0 0 1 1 0 1 0 0 0 1 1 0 0 1 1 0 1 1 0 0 1 1
   52       2    0 1 0 1 0 1 0 1 0 0 1 0 1 0 1 0 1 0 0 1 0 0 0 1 0 0 1 0 1 0 0 0 0 0 1 1 1 1 0 0 0 0 0 1 0 0 1 1 1 0 0
    1       0    0 1 1 1 0 0 1 1 0 1 0 0 0 1 0 0 0 0 0 0 0 0 0 1 1 1 0 0 0 0 0 0 1 0 0 1 0 1 0 0 1 1 1 1 1 0 1 0 1 1 1
    1       1    1 0 0 0 0 1 1 0 1 0 0 0 1 1 0 0 0 1 0 1 1 0 0 1 1
   53       2    0 1 0 1 0 1 0 1 0 0 1 0 1 0 1 0 1 0 0 1 0 0 0 1 0 0 1 0 1 0 0 0 0 0 1 1 1 1 0 0 0 0 0 1 0 0 1 1 1 0 0
    1       0    0 1 1 1 0 0 1 1 0 1 0 0 0 1 0 0 0 0 0 0 0 0 0 1 1 1 0 0 0 0 0 0 1 0 0 1 0 1 0 0 1 1 1 1 1 0 1 0 1 1 1
    1       1    1 0 0 0 0 1 1 0 1 0 0 0 1 1 0 0 0 1 0 1 1 0 0 1 1
   54       2    0 1 0 1 0 1 0 1 0 0 1 0 0 0 1 0 1 0 0 1 1 0 0 1 0 0 1 0 1 0 0 0 0 0 1 0 1 1 0 0 0 0 0 1 1 0 1 1 1 0 0
    1       0    0 1 1 0 0 0 1 1 1 1 1 0 0 1 0 0 1 0 0 0 0 1 0 1 1 1 0 0 0 0 0 0 1 0 0 0 1 1 0 1 0 1 1 1 1 0 1 0 0 1 1
    1       1    1 0 0 0 0 1 1 1 1 0 0 0 1 1 0 0 1 1 0 1 1 0 0 1 1
   8800000.00000000        1618033.00000000       0.000000000000000E+000
  1.136363636363636E-007   6267338.00000000        2540149.00000000     
           1          54          30
   7098322.00000000        6105966.00000000        5687630.00000000     
   1951790.00000000        4603246.00000000        3643054.00000000     
   7249818.00000000        846003.000000000        1901500.00000000     
   4172585.00000000        1675936.00000000        4623589.00000000     
   5778606.00000000        5712430.00000000        4491974.00000000     
   2450503.00000000        502307.000000000        4347165.00000000     
   8212379.00000000        4647394.00000000        3984431.00000000     
   1279698.00000000        7649313.00000000        985002.000000000     
   5336908.00000000        3974624.00000000        7697456.00000000     
   5850052.00000000        1773462.00000000        480354.000000000     
   1163453.00000000        3359182.00000000        7556488.00000000     
   2197419.00000000        6292442.00000000        5269027.00000000     
   3161033.00000000        6066640.00000000        3680543.00000000     
   5640125.00000000        7400415.00000000        2878025.00000000     
   1594362.00000000        5165127.00000000        2242698.00000000     
   93311.0000000000        8222765.00000000        6470721.00000000     
   8550873.00000000        6479102.00000000        7982248.00000000     
   8612809.00000000        8117702.00000000        6267338.00000000     
   2705667.00000000     
   8800000.00000000        1618033.00000000       0.000000000000000E+000
  1.136363636363636E-007   7545303.00000000        2129117.00000000     
           1          35          11
   6043842.00000000        6596421.00000000        6932769.00000000     
   3268687.00000000        3972579.00000000        5251126.00000000     
   5264525.00000000        5117369.00000000        6761588.00000000     
   7600183.00000000        7154319.00000000        1421094.00000000     
   1808534.00000000        4756121.00000000        6447366.00000000     
   347634.000000000        1149600.00000000        3599190.00000000     
   2354673.00000000        3120325.00000000        2555853.00000000     
   1046506.00000000        7958987.00000000        2761796.00000000     
   7282250.00000000        1076798.00000000        8165363.00000000     
   7152778.00000000        7569240.00000000        3949494.00000000     
   3838604.00000000        2285630.00000000        3788037.00000000     
   8357261.00000000        7545303.00000000        5934522.00000000     
   8793256.00000000        6179818.00000000        326857.000000000     
   4411720.00000000        8359437.00000000        7496909.00000000     
   5649299.00000000        164354.000000000        5387039.00000000     
   6461884.00000000        8796109.00000000        2596385.00000000     
   8551550.00000000        7656616.00000000        4473827.00000000     
   2341600.00000000        5418499.00000000        1135691.00000000     
   4037524.00000000     
   8800000.00000000        1618033.00000000       0.000000000000000E+000
  1.136363636363636E-007   6456948.00000000        8322469.00000000     
           1          54          30
   1734682.00000000        6806976.00000000        2500190.00000000     
   3274590.00000000        2997466.00000000        8612554.00000000     
   2553458.00000000        7515033.00000000        3001450.00000000     
   4808065.00000000        7275026.00000000        4357959.00000000     
   4342876.00000000        6205170.00000000        3184864.00000000     
   4518443.00000000        2228367.00000000        8148305.00000000     
   4422479.00000000        5759824.00000000        1500001.00000000     
   8320458.00000000        6781163.00000000        450062.000000000     
   4051308.00000000        308134.000000000        4208586.00000000     
   8739372.00000000        6076872.00000000        3425814.00000000     
   6508513.00000000        4659872.00000000        3940778.00000000     
   4485119.00000000        8620492.00000000        5307587.00000000     
   4827423.00000000        2824990.00000000        3754483.00000000     
   7699685.00000000        7072265.00000000        3412685.00000000     
   1128822.00000000        596707.000000000        2172838.00000000     
   5622191.00000000        3236855.00000000        3823421.00000000     
   366323.000000000        5066922.00000000        4483378.00000000     
   6112339.00000000        1637952.00000000        6456948.00000000     
   812177.000000000     
