          54          54   1.00000000000000     
    1       2    0 1 1 0 0 1 0 1 0 0 1 1 1 1 1 0 1 0 0 0 1 0 1 1 0 0 0 1 1 1 1 1 1 0 0 0 0 0 0 0 0 0 1 1 1 1 1 1 1 1 1
    1       0    0 0 1 0 0 1 1 1 1 0 1 0 1 1 0 0 1 0 0 0 0 1 1 0 0 1 0 1 0 0 0 0 0 0 0 0 0 1 1 1 1 1 1 1 0 1 1 1 1 1 0
    1       1    0 1 1 0 1 1 1 0 0 0 1 1 0 1 1 1 1 1 0 1 1 0 0 0 1
    2       2    1 0 0 0 1 1 0 1 0 0 1 1 0 1 0 0 1 0 0 0 1 0 1 0 0 0 0 1 1 1 1 1 1 0 0 1 0 0 0 0 0 0 1 1 0 0 1 1 1 1 1
    1       0    0 0 1 0 0 1 1 1 0 0 0 0 0 1 0 0 1 0 0 0 0 1 1 0 0 1 0 1 0 0 0 0 0 0 0 0 0 1 1 1 1 1 1 1 0 1 1 1 1 1 0
    1       1    0 1 1 0 1 1 1 0 0 0 1 0 0 1 1 0 1 0 0 1 1 0 0 0 1
    3       2    0 0 0 0 0 1 0 1 0 0 1 1 1 1 0 0 1 0 0 0 1 0 1 1 0 0 0 1 0 1 1 1 1 1 0 0 0 1 0 0 0 0 1 1 1 1 1 1 1 1 1
    1       0    0 0 1 0 0 0 1 1 1 0 1 1 1 1 0 0 1 0 0 0 0 1 1 0 0 1 0 1 0 0 0 0 0 0 0 1 0 0 1 0 1 1 1 1 0 1 1 1 1 1 0
    1       1    0 1 1 0 1 1 1 0 0 0 1 1 0 1 1 1 1 1 0 1 1 0 0 0 1
    4       2    0 0 1 0 0 1 0 1 0 0 1 1 1 1 1 0 1 0 0 0 1 0 1 1 0 0 0 1 0 1 1 1 1 0 0 0 0 0 0 0 0 0 1 1 1 1 1 1 1 1 1
    1       0    0 0 1 0 0 0 1 1 1 0 1 0 1 1 0 0 1 0 0 0 0 1 1 0 0 1 0 1 0 0 0 0 0 0 0 1 0 0 1 0 1 1 1 1 0 1 1 1 1 1 0
    1       1    0 1 1 0 1 1 1 0 0 0 1 1 0 1 1 1 1 1 0 1 1 0 0 0 1
    5       2    0 1 1 0 0 1 0 1 0 0 1 1 1 1 0 0 0 0 0 0 1 0 1 1 0 0 0 1 1 1 1 1 1 0 0 1 0 0 0 0 0 0 1 1 1 1 1 1 1 1 1
    1       0    0 0 1 0 0 1 1 1 1 0 0 0 1 1 0 0 1 0 0 0 0 1 1 0 0 1 0 1 0 0 0 0 0 0 0 0 0 1 1 1 1 1 1 1 0 1 1 1 1 1 0
    1       1    0 1 1 0 1 1 1 0 0 0 1 0 0 1 0 1 1 1 0 1 1 0 0 0 1
    6       2    0 0 0 0 0 1 0 1 0 0 1 1 0 1 0 0 1 0 0 0 1 0 1 0 0 0 0 0 0 1 1 1 1 1 0 0 0 1 0 0 0 0 1 1 1 1 1 1 1 1 1
    1       0    0 0 1 0 0 1 1 1 1 0 1 1 1 1 0 0 1 0 0 0 0 1 1 0 0 1 0 1 0 0 0 0 0 0 0 1 1 1 1 0 1 1 1 1 0 1 1 1 1 1 0
    1       1    0 1 1 0 1 1 1 0 0 0 1 1 0 1 1 1 1 1 0 1 1 0 0 0 1
    7       2    0 0 1 0 0 1 0 1 0 0 1 1 1 1 1 0 1 0 0 0 1 0 1 0 0 0 0 0 1 1 1 1 1 1 0 1 0 1 0 0 0 0 0 1 1 1 1 1 1 1 1
    1       0    0 0 1 0 0 1 1 1 1 0 1 1 1 1 0 0 1 0 0 0 0 1 1 0 0 1 0 1 0 0 0 0 0 1 0 0 0 1 1 1 1 1 1 1 0 1 1 1 1 1 0
    1       1    0 1 1 0 1 1 1 0 0 0 1 1 1 1 1 1 1 0 0 1 1 0 0 0 1
    8       2    0 0 0 0 0 1 0 1 0 0 1 1 0 1 0 0 1 0 0 0 1 0 1 1 0 0 0 1 1 1 1 1 1 1 0 1 0 1 0 0 1 0 1 1 1 1 0 1 1 1 1
    1       0    0 0 1 0 0 1 1 1 1 0 0 1 1 1 0 0 1 0 0 0 0 1 1 0 0 1 0 1 0 0 0 0 0 0 0 1 0 1 1 0 1 1 1 1 0 1 1 1 1 1 0
    1       1    0 1 1 0 1 1 1 0 0 0 1 1 1 1 0 0 0 0 0 1 1 0 0 0 1
    9       2    0 1 0 0 0 1 0 1 0 0 1 1 0 1 0 0 1 0 0 0 1 0 1 1 0 0 0 0 1 1 1 1 1 1 0 0 0 1 0 0 1 0 1 1 1 1 0 1 1 1 1
    1       0    0 0 1 0 0 0 1 1 1 0 0 1 0 1 0 0 1 0 0 0 0 1 1 0 0 1 0 1 0 0 0 0 0 0 0 1 0 1 1 0 0 1 1 1 0 1 1 1 1 1 0
    1       1    0 1 1 0 1 1 1 0 0 0 0 1 0 1 1 0 1 0 0 1 1 0 0 0 1
   10       2    0 0 0 0 0 1 0 1 0 0 1 1 0 1 0 0 1 0 0 0 1 0 1 1 0 0 0 1 0 1 0 0 1 1 0 0 0 1 0 0 0 0 1 1 1 1 1 1 1 1 1
    1       0    0 0 1 0 0 1 0 1 1 0 0 1 1 1 0 0 1 0 0 0 0 1 1 0 0 1 0 1 0 0 0 0 0 0 0 1 0 1 1 0 0 1 1 1 0 1 1 1 1 1 0
    1       1    0 1 1 0 1 1 1 0 0 0 1 1 1 1 0 0 1 0 0 1 1 0 0 0 1
   11       2    0 1 1 0 0 1 0 1 0 0 1 1 1 1 1 0 1 0 0 0 1 0 1 1 0 0 0 1 1 1 1 1 1 0 0 0 0 0 0 0 0 0 1 1 1 1 1 1 1 1 1
    1       0    0 0 1 0 0 1 1 1 1 0 1 0 1 1 0 0 1 0 0 0 0 1 1 0 0 1 0 1 0 0 0 0 0 0 0 0 0 1 1 1 1 1 1 1 0 1 1 1 1 1 0
    1       1    0 1 1 0 1 1 1 0 0 0 1 1 0 1 1 1 1 1 0 1 1 0 0 0 1
   12       2    0 1 1 0 0 1 0 1 0 0 1 1 1 1 1 0 1 0 0 0 1 0 1 1 0 0 0 1 1 1 1 1 1 0 0 0 0 0 0 0 0 0 1 1 1 1 1 1 1 1 1
    1       0    0 0 1 0 0 1 1 1 1 0 1 0 1 1 0 0 1 0 0 0 0 1 1 0 0 1 0 1 0 0 0 0 0 0 0 0 0 1 1 1 1 1 1 1 0 1 1 1 1 1 0
    1       1    0 1 1 0 1 1 1 0 0 0 1 1 0 1 1 1 1 1 0 1 1 0 0 0 1
   13       2    0 0 0 0 0 1 0 1 0 0 1 1 0 1 1 0 1 0 0 0 1 0 1 1 0 0 0 1 1 1 1 1 1 1 1 0 0 1 0 0 0 0 1 0 1 1 1 1 1 1 1
    1       0    0 0 1 0 0 1 1 1 1 0 0 1 1 1 0 0 1 0 0 0 0 1 1 0 0 1 0 1 0 0 0 0 0 0 0 1 0 1 1 0 1 1 1 1 0 1 1 1 1 1 0
    1       1    0 1 1 0 1 1 1 0 0 0 1 1 1 1 0 0 1 0 0 1 1 0 0 0 1
   14       2    0 0 0 0 0 1 0 1 0 0 1 1 0 1 1 0 1 0 0 0 1 0 1 1 0 0 0 1 1 1 1 1 1 1 0 1 0 1 0 0 0 0 1 1 1 1 1 1 1 1 1
    1       0    0 0 1 0 0 0 1 1 1 0 0 1 1 1 0 0 1 0 0 0 0 1 1 0 0 1 0 1 0 0 0 0 0 1 0 0 0 0 1 1 1 1 1 1 0 1 1 1 1 1 0
    1       1    0 1 1 0 1 1 1 0 0 0 1 1 1 1 1 1 1 0 0 1 1 0 0 0 1
   15       2    1 0 1 0 0 1 0 1 0 0 1 1 0 1 0 0 1 0 0 0 1 0 1 1 0 0 0 0 1 1 1 1 1 1 0 1 0 1 0 0 1 0 1 1 1 0 1 1 1 1 1
    1       0    0 0 1 0 0 1 1 1 0 0 0 0 0 1 0 0 1 0 0 0 0 1 1 0 0 1 0 1 0 0 0 0 0 0 0 0 0 1 1 1 0 1 1 1 0 1 1 1 1 1 0
    1       1    0 1 1 0 1 1 1 0 0 0 0 1 0 1 0 0 1 0 0 1 1 0 0 0 1
   16       2    0 0 1 0 1 1 0 1 0 0 1 1 0 1 0 0 1 0 0 0 1 0 1 1 0 0 0 1 0 1 1 1 1 1 0 0 0 1 0 0 0 0 1 1 1 1 1 1 1 1 1
    1       0    0 0 1 0 0 0 1 1 1 0 1 1 1 1 0 0 1 0 0 0 0 1 1 0 0 1 0 1 0 0 0 0 0 0 0 1 0 0 1 1 1 1 1 1 0 1 1 1 1 1 0
    1       1    0 1 1 0 1 1 1 0 0 0 1 1 0 0 1 1 0 0 0 1 1 0 0 0 1
   17       2    0 1 0 0 0 1 0 1 0 0 1 1 0 1 0 0 1 0 0 0 1 0 1 1 0 0 0 0 1 1 1 1 1 1 0 0 0 1 0 0 1 0 1 1 1 1 1 1 1 1 1
    1       0    0 0 1 0 0 1 1 1 1 0 0 1 0 1 0 0 1 0 0 0 0 1 1 0 0 1 0 1 0 0 0 0 0 0 0 1 0 1 1 0 0 1 1 1 0 1 1 1 1 1 0
    1       1    0 1 1 0 1 1 1 0 0 0 0 1 0 1 0 0 1 0 0 1 1 0 0 0 1
   18       2    0 0 0 0 0 1 0 1 0 0 1 1 0 1 0 0 1 0 0 0 1 0 1 0 0 0 0 1 1 1 1 1 1 0 0 0 0 1 0 0 0 0 1 1 1 1 1 1 1 1 1
    1       0    0 0 1 0 0 1 1 0 1 0 1 1 1 1 0 0 1 0 0 0 0 1 1 0 0 1 0 1 0 0 0 0 0 1 0 0 0 0 1 1 1 1 1 1 0 1 1 1 1 1 0
    1       1    0 1 1 0 1 1 1 0 0 0 1 0 1 0 1 1 1 0 0 1 1 0 0 0 1
   19       2    0 0 0 0 0 1 0 1 0 0 1 1 0 0 0 0 1 0 0 0 1 0 1 1 0 0 0 1 1 1 1 1 1 1 0 1 0 1 0 0 1 0 1 1 1 1 1 1 1 1 1
    1       0    0 0 1 0 0 1 1 1 1 0 0 1 1 1 0 0 1 0 0 0 0 1 1 0 0 1 0 1 0 0 0 0 0 0 0 0 0 1 1 1 0 1 1 1 0 1 1 1 1 1 0
    1       1    0 1 1 0 1 1 1 0 0 0 0 1 0 1 0 0 1 0 0 1 1 0 0 0 1
   20       2    0 0 0 0 0 1 0 1 0 0 1 1 0 1 0 0 1 0 0 0 1 0 1 1 0 0 0 0 1 1 0 1 1 1 0 1 0 1 0 0 1 0 1 1 1 1 1 1 1 1 1
    1       0    0 0 1 0 0 1 1 1 1 0 0 1 0 1 0 0 1 0 0 0 0 1 1 0 0 1 0 1 0 0 0 0 1 0 0 1 0 1 1 0 0 1 1 1 0 1 1 1 1 1 0
    1       1    0 1 1 0 1 1 1 0 0 0 0 1 0 1 0 0 1 0 0 1 1 0 0 0 1
   21       2    0 1 0 0 0 1 0 1 0 0 1 1 0 1 1 0 1 0 0 0 1 0 1 1 0 0 0 0 1 1 1 1 1 1 1 0 0 1 0 0 0 0 1 0 1 1 1 1 1 1 1
    1       0    0 0 1 0 0 0 1 1 1 0 0 1 1 1 0 0 1 0 0 0 0 1 1 0 0 1 0 1 0 0 0 0 0 0 0 1 0 1 1 0 0 1 1 1 0 1 1 1 1 1 0
    1       1    0 1 1 0 1 1 1 0 0 0 1 1 1 1 0 0 1 0 0 1 1 0 0 0 1
   22       2    0 0 0 0 1 1 0 1 0 0 1 1 0 1 1 0 1 0 0 0 1 0 1 1 0 0 0 1 1 1 1 1 1 0 0 1 0 0 0 0 0 0 1 1 1 1 1 1 1 1 1
    1       0    0 0 1 0 0 0 1 1 0 0 0 0 0 1 0 0 1 0 0 0 0 1 1 0 0 1 0 1 0 0 0 0 0 1 0 0 0 1 1 1 1 1 1 1 0 1 1 1 1 1 0
    1       1    0 1 1 0 1 1 1 0 0 0 1 1 1 1 1 1 1 0 0 1 1 0 0 0 1
   23       2    0 0 0 0 0 0 0 1 0 0 1 1 0 1 0 0 1 0 0 0 1 0 1 1 0 0 0 1 1 1 1 1 1 1 0 0 0 1 0 0 0 0 1 1 1 1 1 1 1 1 1
    1       0    0 0 1 0 0 0 1 1 1 0 1 1 1 1 0 0 1 0 0 0 0 1 1 0 0 1 0 1 0 0 0 0 0 0 0 0 0 0 1 1 1 1 1 1 0 1 1 1 1 1 0
    1       1    0 1 1 0 1 1 1 0 0 0 1 1 0 1 1 1 1 1 0 1 1 0 0 0 1
   24       2    0 0 0 0 0 1 0 1 0 0 1 1 1 1 1 0 1 0 0 0 1 0 1 1 0 0 0 1 0 1 1 1 1 1 0 0 0 1 0 0 0 0 1 1 1 1 0 1 1 1 1
    1       0    0 0 1 0 0 1 1 1 1 0 0 0 1 1 0 0 1 0 0 0 0 1 1 0 0 1 0 1 0 0 0 0 0 0 0 1 0 0 1 0 1 1 1 1 0 1 1 1 1 1 0
    1       1    0 1 1 0 1 1 1 0 0 0 1 1 1 1 0 1 1 1 0 1 1 0 0 0 1
   25       2    0 0 1 0 0 1 0 1 0 0 1 1 1 1 0 0 1 0 0 0 1 0 1 1 0 0 0 1 1 1 0 0 1 1 0 0 0 1 0 0 0 0 1 1 1 1 1 1 1 1 1
    1       0    0 0 1 0 0 1 1 1 1 0 1 1 1 1 0 0 1 0 0 0 0 1 1 0 0 1 0 1 0 0 0 0 0 0 0 0 0 0 1 1 1 1 1 1 0 1 1 1 1 1 0
    1       1    0 1 1 0 1 1 1 0 0 0 1 1 0 1 0 0 1 0 0 1 1 0 0 0 1
   26       2    0 1 0 0 0 1 0 1 0 0 1 1 0 1 1 0 1 0 0 0 1 0 1 1 0 0 0 1 0 1 1 1 1 0 0 0 0 0 0 0 0 0 1 1 1 1 1 1 1 1 1
    1       0    0 0 1 0 0 1 0 1 1 0 0 0 1 1 0 0 1 0 0 0 0 1 1 0 0 1 0 1 0 0 0 0 0 0 0 1 0 1 1 0 0 1 1 1 0 1 1 1 1 1 0
    1       1    0 1 1 0 1 1 1 0 0 0 1 1 1 1 1 1 1 1 0 1 1 0 0 0 1
   27       2    0 0 0 0 0 1 0 1 0 0 1 1 0 0 1 0 1 0 0 0 1 0 1 1 0 0 0 1 1 1 1 1 1 0 0 1 0 0 0 0 1 0 1 1 1 1 1 1 1 1 1
    1       0    0 0 1 0 0 1 1 1 1 0 1 1 1 1 0 0 1 0 0 0 0 1 1 0 0 1 0 1 0 0 0 0 0 0 0 0 0 1 1 1 1 1 1 1 0 1 1 1 1 1 0
    1       1    0 1 1 0 1 1 1 0 0 0 1 1 0 1 0 1 0 0 0 1 1 0 0 0 1
   28       2    1 1 0 0 0 1 0 1 0 0 1 1 0 1 0 0 1 0 0 0 1 0 1 1 0 0 0 1 1 1 1 1 1 1 0 0 0 1 0 0 1 0 1 1 1 1 1 1 1 1 1
    1       0    0 0 1 0 1 1 1 1 1 0 1 1 0 1 0 0 1 0 0 0 0 1 1 0 0 1 0 1 0 0 0 0 0 0 0 1 0 1 1 1 1 1 1 1 0 1 1 1 1 1 0
    1       1    0 1 1 0 1 1 1 0 0 0 1 0 1 1 0 1 1 0 0 1 1 0 0 0 1
   29       2    0 1 1 0 0 1 0 1 0 0 1 1 1 1 1 0 1 0 0 0 1 0 1 1 0 0 0 1 0 1 1 1 1 1 0 0 0 0 0 0 0 0 1 1 1 1 1 1 1 1 1
    1       0    0 0 1 0 0 0 1 1 1 0 1 0 1 1 0 0 1 0 0 0 0 1 1 0 0 1 0 1 0 0 0 0 0 0 0 1 0 0 1 1 1 1 1 1 0 1 1 1 1 1 0
    1       1    0 1 1 0 1 1 1 0 0 0 1 1 0 1 1 1 1 1 0 1 1 0 0 0 1
   30       2    0 0 0 0 0 1 0 1 0 0 1 1 1 1 1 0 1 0 0 0 1 0 1 1 0 0 0 1 1 1 1 1 1 0 0 0 0 0 0 0 0 0 1 1 1 1 1 1 1 1 1
    1       0    0 0 1 0 0 1 1 1 1 0 1 0 1 1 0 0 1 0 0 0 0 1 1 0 0 1 0 1 0 0 0 0 0 0 0 0 0 1 1 0 1 1 1 1 0 1 1 1 1 1 0
    1       1    0 1 1 0 1 1 1 0 0 0 0 1 0 1 1 1 1 1 0 1 1 0 0 0 1
   31       2    0 0 0 0 0 1 0 1 0 0 1 1 0 0 1 0 1 0 0 0 1 0 1 1 0 0 0 1 1 1 1 1 1 0 0 1 0 0 0 0 1 0 1 1 1 1 1 1 1 1 1
    1       0    0 0 1 0 0 1 1 1 1 0 1 1 1 1 0 0 1 0 0 0 0 1 1 0 0 1 0 1 0 0 0 0 0 0 0 0 0 1 1 1 1 1 1 1 0 1 1 1 1 1 0
    1       1    0 1 1 0 1 1 1 0 0 0 1 1 0 1 0 1 0 0 0 1 1 0 0 0 1
   32       2    0 0 0 0 0 1 0 1 0 0 1 1 0 0 1 0 1 0 0 0 1 0 1 1 0 0 0 1 1 1 1 1 1 0 0 1 0 0 0 0 1 0 1 1 1 1 1 1 1 1 1
    1       0    0 0 1 0 0 1 1 1 1 0 1 1 1 1 0 0 1 0 0 0 0 1 1 0 0 1 0 1 0 0 0 0 0 0 0 0 0 1 1 1 1 1 1 1 0 1 1 1 1 1 0
    1       1    0 1 1 0 1 1 1 0 0 0 1 1 0 1 0 1 0 0 0 1 1 0 0 0 1
   33       2    0 0 1 0 0 1 0 1 0 0 1 1 0 1 1 0 1 0 0 0 1 0 1 1 0 0 0 0 0 1 0 1 1 1 0 1 0 1 0 0 1 0 1 0 1 1 1 1 1 1 1
    1       0    0 0 1 0 0 1 1 1 1 0 0 0 0 1 0 0 1 0 0 0 0 1 1 0 0 1 0 1 0 0 0 0 0 0 0 1 0 1 1 0 0 1 1 1 0 1 1 1 1 1 0
    1       1    0 1 1 0 1 1 1 0 0 0 0 1 0 1 0 0 1 0 0 1 1 0 0 0 1
   34       2    0 0 0 0 0 1 0 1 0 0 1 1 0 1 1 0 1 0 0 0 1 0 1 1 0 0 0 1 0 1 1 0 1 0 0 0 0 0 1 0 0 0 1 1 1 1 1 1 1 1 1
    1       0    0 0 1 0 0 0 1 1 1 0 0 0 1 1 0 0 1 0 0 0 0 1 1 0 0 1 0 1 0 0 0 0 0 0 0 1 0 0 1 0 1 1 1 1 0 1 1 1 1 1 0
    1       1    0 1 1 0 1 1 1 0 0 0 1 1 0 1 1 1 1 0 0 1 1 0 0 0 1
   35       2    0 1 1 0 1 1 0 1 0 0 1 1 1 1 1 0 1 0 0 0 1 0 1 1 0 0 0 1 1 1 1 1 1 1 0 1 0 0 0 0 0 1 1 1 1 1 1 1 1 1 1
    1       0    0 0 1 0 0 0 1 1 1 0 1 0 0 1 0 0 1 0 0 0 0 1 1 0 0 1 0 1 0 0 0 0 0 1 0 0 0 0 1 1 1 1 1 1 0 1 1 1 1 1 0
    1       1    0 1 1 0 1 1 1 0 0 0 1 1 0 1 1 1 1 0 0 1 1 0 0 0 1
   36       2    0 1 0 0 0 1 0 1 0 0 1 1 0 1 1 0 1 0 0 0 1 0 1 1 0 0 0 1 1 1 1 1 1 0 0 0 0 0 0 0 0 0 1 1 1 1 1 1 1 1 1
    1       0    0 0 1 0 0 1 0 1 0 0 0 0 1 1 0 0 1 0 0 0 0 1 1 0 0 1 0 1 0 0 0 0 0 0 0 1 0 1 1 0 1 1 1 1 0 1 1 1 1 1 0
    1       1    0 1 1 0 1 1 1 0 0 0 1 1 0 1 1 1 1 1 0 1 1 0 0 0 1
   37       2    0 0 0 0 0 1 0 1 0 0 1 1 0 1 0 0 1 0 0 0 1 0 1 1 0 0 0 1 1 1 1 1 1 1 0 0 0 1 0 0 0 0 1 1 1 1 1 1 1 1 1
    1       0    0 0 1 0 0 0 1 1 1 0 1 0 1 0 0 0 1 0 0 0 0 1 1 0 0 1 0 1 0 0 0 0 0 0 0 0 0 0 1 1 1 1 1 1 0 1 1 1 1 1 0
    1       1    0 1 1 0 1 1 1 0 0 0 0 1 0 1 1 1 1 1 0 1 1 0 0 0 1
   38       2    0 0 0 0 0 1 0 1 0 0 1 1 0 1 1 0 1 0 0 0 1 0 1 1 0 0 0 1 1 1 1 1 1 0 1 1 0 1 0 0 0 0 1 0 1 1 1 1 1 1 1
    1       0    0 0 1 0 0 1 1 1 1 0 0 0 0 1 0 0 1 0 0 0 0 1 1 0 0 1 0 1 0 0 0 0 0 1 0 0 1 1 1 0 1 1 1 1 0 1 1 1 1 1 0
    1       1    0 1 1 0 1 1 1 0 0 0 1 1 1 1 1 0 1 0 0 1 1 0 0 0 1
   39       2    0 1 0 0 0 1 0 1 0 0 1 1 0 1 1 0 1 0 0 0 1 0 1 1 0 0 0 1 1 1 1 1 1 1 0 0 0 0 0 0 1 0 1 1 1 1 1 1 1 1 1
    1       0    0 0 1 0 0 1 0 1 1 0 0 0 1 1 0 0 1 0 0 0 0 1 1 0 0 1 0 1 0 0 0 0 0 0 0 1 0 1 1 0 0 1 1 1 0 1 1 1 1 1 0
    1       1    0 1 1 0 1 1 1 0 0 0 0 1 0 1 1 1 1 1 0 1 1 0 0 0 1
   40       2    0 0 0 0 0 1 0 1 0 0 1 1 0 1 0 0 1 0 0 0 1 0 1 0 0 0 1 1 1 1 1 1 1 0 0 1 0 0 0 0 0 0 1 1 0 1 1 1 1 1 1
    1       0    0 0 1 0 0 1 1 1 1 0 1 0 0 1 0 0 1 0 0 0 0 1 1 0 0 1 0 1 0 0 0 0 0 0 0 0 0 1 1 1 1 1 1 1 0 1 1 1 1 1 0
    1       1    0 1 1 0 1 1 1 0 0 0 1 1 0 1 1 1 0 0 0 1 1 0 0 0 1
   41       2    1 0 0 0 1 1 0 1 0 0 1 1 0 0 1 1 1 0 0 0 1 0 1 1 0 0 0 1 1 1 1 1 1 0 0 1 0 0 0 0 1 0 1 1 1 0 1 1 1 1 1
    1       0    0 0 1 0 0 1 1 1 0 0 0 1 1 1 0 0 1 0 0 0 0 1 1 0 0 1 0 1 0 0 0 0 0 0 0 0 0 1 1 1 1 1 1 1 0 1 1 1 1 1 0
    1       1    0 1 1 0 1 1 1 0 0 0 1 0 0 1 0 0 1 0 0 1 1 0 0 0 1
   42       2    0 1 0 0 0 1 0 1 0 0 1 1 0 1 0 0 1 0 0 0 1 0 1 1 0 0 0 0 0 1 1 1 1 1 0 0 0 1 0 0 0 0 1 1 1 1 1 1 1 1 1
    1       0    0 0 1 0 0 0 1 1 1 0 0 1 0 1 0 0 1 0 0 0 0 1 1 0 0 1 0 1 0 0 0 0 0 0 0 1 1 1 1 0 0 1 1 1 0 1 1 1 1 1 0
    1       1    0 1 1 0 1 1 1 0 0 0 0 1 0 1 1 1 1 1 0 1 1 0 0 0 1
   43       2    0 0 0 0 0 1 0 1 0 0 1 1 0 1 1 0 1 0 0 0 1 0 1 1 0 0 0 1 0 1 1 1 1 1 1 0 0 1 0 0 0 0 1 1 1 1 1 1 1 1 1
    1       0    0 0 1 0 0 0 1 1 1 0 0 1 1 1 0 0 1 0 0 0 0 1 1 0 0 1 0 1 0 0 0 0 0 0 0 1 0 1 1 0 1 1 1 1 0 1 1 1 1 1 0
    1       1    0 1 1 0 1 1 1 0 0 0 1 1 1 1 1 1 1 0 0 1 1 0 0 0 1
   44       2    0 1 0 0 0 1 0 1 0 0 1 1 0 1 1 0 1 0 0 0 1 0 1 1 0 0 0 0 0 1 1 1 1 1 1 0 0 0 0 0 0 0 1 1 1 1 1 1 1 1 1
    1       0    0 0 1 0 0 0 0 1 1 0 0 0 1 1 0 0 1 0 0 0 0 1 1 0 0 1 0 1 0 0 0 1 0 0 0 1 0 1 0 0 0 1 1 1 0 1 1 1 1 1 0
    1       1    0 1 1 0 1 1 1 0 0 0 1 1 1 1 1 1 1 0 0 1 1 0 0 0 1
   45       2    0 1 0 0 0 1 0 1 0 0 1 1 0 1 1 0 1 0 0 0 1 0 1 1 1 0 0 1 1 1 0 1 1 0 0 0 0 1 0 0 0 0 1 0 1 0 1 1 1 1 1
    1       0    0 0 1 0 0 1 1 1 1 0 0 1 1 1 0 0 1 0 0 0 0 1 1 0 0 1 0 1 0 0 0 0 0 0 0 1 0 1 1 0 0 1 1 1 0 1 1 1 1 1 0
    1       1    0 1 1 0 1 1 1 0 0 0 1 1 1 1 0 0 0 1 0 1 1 0 0 0 1
   46       2    1 0 0 0 0 1 0 1 0 0 1 1 0 1 0 0 0 0 0 0 1 0 1 1 0 0 0 1 1 1 1 0 1 1 0 0 0 1 0 0 1 0 1 0 1 1 0 1 1 1 1
    1       0    0 0 1 0 0 1 1 0 1 0 0 1 0 0 0 0 1 0 0 0 0 1 1 0 0 1 0 1 0 0 0 0 0 1 0 1 0 1 1 0 1 1 1 1 0 1 1 1 1 1 1
    1       1    0 1 1 0 1 1 1 0 0 0 0 1 1 1 1 0 0 0 0 1 1 0 0 0 1
   47       2    0 0 0 0 0 1 0 1 0 0 1 1 0 1 0 0 1 0 0 0 1 0 1 0 0 0 0 0 1 1 1 1 1 1 0 0 1 1 0 0 1 0 1 0 1 1 1 1 1 1 1
    1       0    0 0 1 0 0 1 1 1 0 0 0 0 1 1 0 0 1 0 0 0 0 1 1 0 0 1 0 1 0 0 0 0 0 1 0 0 0 1 1 1 0 1 1 1 0 1 1 1 1 1 1
    1       1    0 1 1 0 1 1 1 0 0 1 0 1 1 1 0 0 1 0 0 1 1 0 0 0 1
   48       2    0 0 1 0 0 1 0 1 0 0 1 1 0 0 0 0 1 0 0 0 1 0 1 1 0 0 0 1 0 1 1 1 1 0 1 0 0 0 0 0 0 0 1 1 1 1 1 1 1 1 1
    1       0    0 0 1 0 0 1 1 1 1 0 1 1 1 1 0 0 1 0 0 0 0 1 1 0 0 1 0 1 0 0 0 0 0 1 0 0 0 1 1 1 1 1 1 1 0 1 1 1 1 1 0
    1       1    0 1 1 0 1 1 1 1 0 0 1 1 0 1 1 1 1 0 0 1 1 0 0 0 1
   49       2    0 0 0 0 0 1 0 1 0 0 1 1 1 0 0 0 1 0 0 0 1 0 1 1 0 0 0 1 0 1 1 1 1 1 1 0 0 0 0 0 0 0 1 1 1 1 1 1 1 1 1
    1       0    0 0 1 0 0 1 1 1 1 0 1 1 1 1 0 0 1 0 0 0 0 1 1 0 0 1 0 1 0 0 0 0 0 1 0 0 0 1 1 0 1 1 1 1 0 1 1 1 1 1 0
    1       1    0 1 1 0 1 1 1 1 0 0 1 1 0 1 1 0 1 1 0 1 1 0 0 0 1
   50       2    0 0 0 0 0 0 0 1 0 0 1 1 0 1 0 0 1 0 0 0 1 0 1 0 0 0 0 1 1 1 1 1 1 1 0 1 0 1 0 0 0 0 1 0 1 1 1 1 1 1 1
    1       0    0 1 1 0 0 1 1 1 1 0 0 1 1 1 0 0 1 0 0 0 0 1 1 0 0 1 0 1 0 0 0 0 0 1 0 1 0 1 1 1 1 1 1 1 0 1 1 1 1 1 0
    1       1    0 1 1 0 1 0 1 1 0 0 0 1 0 1 0 0 1 0 0 1 1 0 0 0 1
   51       2    0 0 0 0 0 1 0 1 0 0 1 1 0 0 0 0 0 0 0 0 1 0 1 0 0 0 0 1 1 1 1 1 1 0 0 0 0 1 0 0 0 0 1 1 1 1 1 1 1 1 1
    1       0    0 0 1 1 0 1 1 1 0 0 0 0 1 1 0 0 1 0 0 0 0 1 1 0 0 1 0 1 0 0 0 0 0 0 0 0 0 0 1 1 1 1 1 1 0 1 1 1 1 1 0
    1       1    0 1 1 0 1 1 1 0 0 0 1 0 1 1 1 1 1 0 0 1 1 0 0 0 1
   52       2    0 1 0 0 0 1 0 1 0 0 1 1 1 0 0 0 1 0 0 0 1 0 1 1 0 0 0 1 1 1 1 1 1 1 0 0 0 0 0 0 0 0 1 1 1 1 1 1 1 1 1
    1       0    0 0 1 1 0 1 0 1 1 0 0 1 1 1 0 0 1 0 0 0 0 1 1 0 0 1 0 1 0 0 0 0 0 0 0 1 0 1 1 1 0 1 1 1 0 1 1 1 1 1 0
    1       1    0 1 1 0 1 1 1 0 0 0 1 1 1 1 0 1 1 1 0 1 1 0 0 0 1
   53       2    1 0 1 0 0 1 0 1 0 0 1 1 0 1 0 0 1 0 0 0 1 0 1 1 0 0 0 1 1 1 1 1 1 1 0 1 0 1 0 0 0 0 1 1 1 0 1 1 1 1 1
    1       0    0 0 1 1 0 1 1 1 1 0 0 1 0 1 0 0 1 0 0 0 0 1 1 0 0 1 0 1 0 0 0 0 0 0 0 1 0 1 1 1 1 1 1 1 0 1 1 1 1 1 0
    1       1    0 1 1 0 1 1 1 0 0 0 0 1 0 1 0 0 1 0 0 1 1 0 0 0 1
   54       2    0 1 1 0 0 1 0 1 0 0 1 1 1 1 0 0 1 0 0 0 1 0 1 1 0 0 0 1 1 1 1 0 1 1 0 0 0 0 0 0 1 0 1 1 1 1 1 1 1 1 1
    1       0    0 0 1 1 0 1 1 0 1 0 0 1 1 0 0 0 1 0 0 0 0 1 1 0 0 1 0 1 0 0 0 0 0 0 0 0 0 1 1 0 1 1 1 1 0 1 1 1 1 1 0
    1       1    0 1 1 0 1 1 1 0 0 0 1 1 0 1 1 0 1 1 0 1 1 0 0 0 1
   8800000.00000000        1618033.00000000       0.000000000000000E+000
  1.136363636363636E-007   8408533.00000000        3852669.00000000     
           1          47          23
   3374843.00000000        6876306.00000000        5819492.00000000     
   1118401.00000000        4987696.00000000        3047962.00000000     
   8630646.00000000        7707233.00000000        368226.000000000     
   8148370.00000000        2543547.00000000        1234921.00000000     
   3421727.00000000        1054738.00000000        4169747.00000000     
   3046846.00000000        8493588.00000000        2558865.00000000     
   6682373.00000000        921996.000000000        8114083.00000000     
   6778799.00000000        4543676.00000000        7654668.00000000     
   2281642.00000000        4120568.00000000        597544.000000000     
   2175589.00000000        1598682.00000000        7832394.00000000     
   5867064.00000000        7430795.00000000        7920170.00000000     
   8491673.00000000        5169282.00000000        5884676.00000000     
   5845987.00000000        3788560.00000000        7521821.00000000     
   4078436.00000000        1124218.00000000        360130.000000000     
   5648531.00000000        564854.000000000        7382875.00000000     
   3891426.00000000        8408533.00000000        2351138.00000000     
   8725097.00000000        2600516.00000000        5285412.00000000     
   669691.000000000        1156527.00000000        3375546.00000000     
   4382668.00000000     
   8800000.00000000        1618033.00000000       0.000000000000000E+000
  1.136363636363636E-007   23085.0000000000        8395837.00000000     
           1          47          23
   108707.000000000        346482.000000000        153196.000000000     
   935081.000000000        822112.000000000        3373442.00000000     
   625070.000000000        5019953.00000000        2352170.00000000     
   1279762.00000000        6883267.00000000        7516737.00000000     
   3828295.00000000        5355258.00000000        7365643.00000000     
   3569918.00000000        7627676.00000000        6850249.00000000     
   1949573.00000000        3663108.00000000        4287419.00000000     
   2552847.00000000        2791148.00000000        2419588.00000000     
   1814266.00000000        1517920.00000000        8427072.00000000     
   2017213.00000000        4136706.00000000        6529210.00000000     
   6388624.00000000        8252275.00000000        8534410.00000000     
   2047881.00000000        7495674.00000000        2729628.00000000     
   7554987.00000000        7201912.00000000        3098301.00000000     
   3684340.00000000        2475682.00000000        1859002.00000000     
   5667771.00000000        1956046.00000000        1153659.00000000     
   54714.0000000000        23085.0000000000        786882.000000000     
   2544201.00000000        4199604.00000000        1174452.00000000     
   4140091.00000000        2531223.00000000        1618698.00000000     
   5995540.00000000     
   8800000.00000000        1618033.00000000       0.000000000000000E+000
  1.136363636363636E-007   6876938.00000000        7073189.00000000     
           1          47          23
   8708678.00000000        4527446.00000000        8203427.00000000     
   8045476.00000000        4586186.00000000        1757037.00000000     
   8651631.00000000        1111783.00000000        2970761.00000000     
   8081250.00000000        1893722.00000000        7316286.00000000     
   3240122.00000000        479413.000000000        2529812.00000000     
   8659926.00000000        857283.000000000        2794250.00000000     
   6540373.00000000        1986301.00000000        613248.000000000     
   2730019.00000000        5154006.00000000        1664093.00000000     
   6378752.00000000        3799723.00000000        2451589.00000000     
   5242074.00000000        404917.000000000        5941884.00000000     
   3828589.00000000        6229870.00000000        8086270.00000000     
   2554043.00000000        2392787.00000000        6984081.00000000     
   1840362.00000000        3707715.00000000        2836521.00000000     
   2329746.00000000        7672053.00000000        8400835.00000000     
   7849006.00000000        1922859.00000000        6135.00000000000     
   5436871.00000000        6876938.00000000        8458798.00000000     
   2518157.00000000        3036086.00000000        3779762.00000000     
   3300691.00000000        1529842.00000000        2238576.00000000     
   1577123.00000000     
