          81          54
    1    0 0 1 1 1 0 1 1 1 1 1 1 1 0 0 1 1 0 0 0 0 0 0 1 0 1 0 1 1 1 1 0 0 0 1 0 1 1 1 1 1 1 1 1 1 1 0 0 1 0 0
    1    0 0 1 0 1 1 1 0 1 1 0 0 1 1 1 1 0 0 0 0 1 1 0 1 1 1 0 0 0 1 0 0 0 0 0 0 1 1 1 0 0 1 1 1 1 1 0 1 0 0 0
    0    1 0 0 1 0 0 0 0 1 0 0 0 0 1 0 1 1 1 1 0 0 1 1 0 0 1 0
    2    0 0 1 1 1 0 1 0 1 1 1 1 0 0 0 1 1 0 0 0 0 1 0 1 0 1 0 1 1 1 1 0 0 0 1 0 1 1 1 1 1 1 1 1 1 1 0 0 1 0 0
    1    0 0 1 0 1 1 1 0 1 1 0 1 1 1 1 1 1 0 0 0 0 0 0 1 1 1 0 0 0 1 0 0 0 0 0 0 1 1 1 1 0 1 1 1 1 1 0 1 0 0 0
    0    1 0 0 1 0 0 0 0 1 0 1 1 0 1 0 0 1 1 1 0 0 1 1 0 0 1 0
    3    0 0 1 1 1 0 1 0 1 1 1 1 0 1 0 1 1 0 0 0 0 0 0 1 0 1 0 1 0 1 1 1 0 0 1 0 1 1 1 1 1 1 1 1 1 1 0 0 0 0 0
    1    0 0 1 0 1 0 1 0 1 1 0 0 1 1 1 1 1 0 0 0 0 0 0 1 1 1 0 0 0 1 0 0 0 1 1 0 1 1 1 0 0 1 1 1 1 1 0 1 0 0 0
    0    1 0 0 1 0 0 0 0 1 0 1 1 0 1 0 0 1 1 1 0 0 1 1 0 0 1 0
    4    0 0 1 1 1 0 1 1 1 1 1 1 1 0 0 1 1 0 0 0 0 1 0 1 0 1 0 1 1 1 1 0 0 0 1 0 1 1 1 1 1 1 1 1 1 1 0 0 1 1 0
    1    0 0 1 0 1 1 1 0 1 1 0 0 1 1 1 0 0 1 0 0 0 0 0 1 1 1 0 0 0 1 0 0 0 1 0 0 1 1 1 0 1 1 1 1 1 1 0 1 0 0 0
    0    1 0 0 1 0 0 0 0 1 0 0 0 0 1 0 0 1 1 1 0 0 1 1 0 0 1 0
    5    0 0 1 1 1 0 1 1 1 1 1 1 0 0 0 1 1 1 0 0 0 0 0 1 0 1 0 1 1 1 1 1 0 0 1 0 1 1 1 1 1 1 1 1 1 1 0 0 1 1 0
    1    0 0 1 0 1 1 1 0 1 1 0 1 1 1 1 1 0 0 0 0 0 0 0 0 1 1 0 0 0 1 0 0 0 1 0 0 1 1 1 0 0 1 1 1 1 1 0 1 0 0 0
    0    1 0 0 1 0 0 0 0 1 0 1 0 0 1 0 1 1 1 1 0 0 1 1 0 0 1 0
    6    0 0 1 1 1 0 1 0 1 1 1 1 1 0 0 1 0 0 0 1 0 1 0 1 0 1 0 1 0 1 1 0 0 0 1 0 1 1 1 1 1 1 1 1 1 1 0 0 1 0 0
    1    0 0 1 0 1 1 1 0 1 1 0 0 1 1 1 1 1 0 0 0 1 1 0 1 1 1 0 0 0 1 0 0 1 0 0 0 1 1 1 1 1 1 1 1 1 1 0 1 0 0 0
    0    1 0 0 1 0 0 0 0 1 0 0 1 0 1 0 0 1 1 1 0 0 1 1 0 0 1 0
    7    0 0 1 1 1 0 1 1 1 1 1 1 1 0 0 1 1 0 0 0 0 0 0 1 0 1 0 1 1 1 1 1 0 0 1 0 1 1 1 1 1 1 1 1 1 1 0 0 1 0 0
    1    0 0 1 0 1 1 1 0 1 1 0 0 1 1 1 1 0 0 1 0 1 1 0 1 1 1 0 0 0 1 0 0 0 0 0 0 1 1 1 0 1 1 1 1 1 1 0 1 0 0 0
    0    1 0 0 1 0 0 0 0 1 0 0 0 0 1 0 1 1 1 1 0 0 1 1 0 0 1 0
    8    0 0 1 1 1 0 1 1 1 1 0 1 1 0 0 1 1 0 0 0 0 1 0 1 0 1 0 1 1 1 1 0 0 0 1 0 1 1 1 1 1 1 1 1 1 1 0 0 1 1 0
    1    0 0 1 0 1 1 1 0 1 1 0 0 1 1 1 1 0 1 0 0 1 1 0 1 1 1 0 0 0 1 0 0 0 1 0 0 1 1 1 0 1 1 1 1 1 1 0 1 0 0 0
    0    1 0 0 1 0 0 0 0 1 0 0 0 0 1 0 0 1 1 1 0 0 1 1 0 0 1 0
    9    0 0 1 1 1 0 1 1 1 1 1 1 1 0 0 1 1 0 0 0 0 0 0 1 0 1 0 1 1 1 1 0 0 0 1 0 1 1 1 1 1 1 1 1 1 1 0 0 1 0 0
    1    0 0 1 0 1 1 1 0 1 1 0 0 1 1 1 0 0 0 0 0 0 0 0 1 1 1 0 0 0 1 0 0 0 0 0 0 1 1 1 1 0 1 1 1 1 1 0 1 0 0 0
    0    1 0 0 1 0 0 0 0 1 0 0 0 0 1 0 1 1 1 1 0 0 1 1 0 0 1 0
   10    0 0 1 1 1 0 0 1 1 1 1 1 1 1 0 1 1 0 0 0 0 0 0 1 0 1 0 1 0 1 0 1 0 0 1 0 1 1 1 1 1 1 1 1 1 1 0 0 1 0 0
    1    0 0 1 1 1 1 1 0 1 1 0 0 1 1 1 1 0 0 0 0 0 0 0 1 1 1 0 0 0 1 0 0 0 1 0 0 1 1 1 0 0 1 1 1 1 1 0 1 0 0 0
    0    1 0 0 1 0 0 0 0 1 0 0 0 0 1 0 0 1 1 1 0 0 1 1 0 0 1 0
   11    0 0 1 1 1 0 1 1 1 1 1 1 0 1 0 1 1 0 0 0 0 0 0 1 0 1 0 1 1 1 1 1 0 0 1 0 1 1 1 1 1 1 1 1 1 1 0 0 0 1 0
    1    0 0 1 0 1 0 1 0 1 1 0 1 1 1 1 1 1 0 0 0 0 0 0 0 1 1 0 0 0 1 0 0 0 1 0 0 1 1 1 0 0 1 1 1 1 1 0 1 0 0 0
    0    1 0 0 1 0 0 0 0 1 0 1 0 0 1 0 0 1 1 1 0 0 1 1 0 0 1 0
   12    0 0 1 1 1 0 1 0 1 1 1 0 0 0 0 1 1 1 0 0 0 0 0 1 0 1 0 1 0 1 1 0 0 0 1 0 1 1 1 1 1 1 1 1 1 1 0 0 1 0 0
    1    0 0 1 0 1 1 1 0 1 1 0 0 1 1 1 1 0 0 0 0 0 0 0 1 1 1 0 0 0 1 0 0 0 1 1 0 1 1 1 0 0 1 1 1 1 1 0 1 0 0 0
    0    1 0 0 1 0 0 0 0 1 0 1 1 0 1 0 1 1 1 1 0 0 1 1 0 0 1 0
   13    0 0 1 1 1 0 1 0 1 1 1 1 0 0 0 1 1 0 0 0 0 0 0 1 0 1 0 1 1 1 1 0 0 0 1 0 1 1 1 1 1 1 1 1 1 1 0 0 1 0 0
    1    0 0 1 0 1 1 1 0 1 1 0 0 1 1 1 1 1 0 0 0 1 0 0 1 1 1 0 0 0 1 0 0 0 0 0 0 1 1 1 1 0 1 1 1 1 1 0 1 0 0 0
    0    1 0 0 1 0 0 0 0 1 0 1 0 0 1 0 1 1 1 1 0 0 1 1 0 0 1 0
   14    0 0 1 1 1 1 1 1 1 1 1 1 1 0 0 1 1 0 0 0 0 1 0 1 0 1 0 1 1 1 1 0 0 0 1 0 1 1 1 1 1 1 1 1 1 1 0 0 1 1 0
    1    0 0 1 0 1 1 1 0 1 1 0 0 1 1 1 0 0 1 0 0 1 0 0 1 1 1 0 0 0 1 0 0 0 1 0 0 1 1 1 0 0 1 1 1 1 1 0 1 0 0 0
    0    1 0 0 1 0 0 0 0 1 0 0 0 0 1 1 0 1 1 1 0 0 1 1 0 0 1 0
   15    0 0 1 1 1 0 1 1 1 1 1 1 1 0 1 1 1 0 0 0 0 0 0 1 0 1 0 0 1 1 1 0 0 0 1 0 1 1 1 1 1 1 1 1 1 1 0 0 1 1 1
    0    0 0 1 0 1 1 1 0 1 1 0 1 0 0 1 1 0 0 0 0 1 1 0 1 1 1 0 0 0 1 0 0 0 0 0 0 1 1 0 1 0 0 1 1 1 1 0 1 0 0 0
    0    1 0 0 1 0 0 0 0 1 0 0 0 0 0 0 1 1 1 1 0 0 1 1 0 0 1 0
   16    0 0 1 1 1 1 1 1 1 1 1 1 1 0 0 1 1 0 0 0 0 0 0 1 0 1 0 1 1 1 1 0 0 0 1 0 1 1 1 1 1 1 1 1 1 1 0 0 1 0 0
    1    0 0 1 0 1 1 1 0 1 1 0 0 1 1 1 0 0 0 0 0 0 1 0 1 1 1 0 0 0 1 0 0 0 0 0 0 1 0 1 1 0 1 1 1 1 1 0 1 0 0 0
    0    1 0 0 1 0 0 0 0 1 0 0 0 0 1 0 1 1 1 1 0 0 1 1 0 0 1 0
   17    0 0 1 1 1 0 1 1 1 1 1 1 1 0 1 1 1 0 0 0 0 0 0 1 0 1 0 1 0 1 1 0 0 0 1 0 1 1 1 1 1 1 1 1 1 1 0 0 1 0 0
    1    0 0 1 0 1 1 1 0 1 1 0 0 1 1 1 1 0 0 0 0 1 0 0 1 1 1 0 0 0 1 0 0 0 0 0 0 1 1 1 0 0 1 1 1 1 1 0 1 0 0 0
    0    1 0 0 1 0 0 0 0 1 0 0 0 0 1 0 1 1 1 1 0 0 1 1 0 0 1 0
   18    0 0 1 1 1 0 1 1 1 1 1 1 0 0 0 1 1 0 0 0 0 0 0 1 0 1 0 1 1 1 1 0 0 0 1 0 0 1 1 1 1 1 1 1 1 1 0 0 1 1 0
    1    0 0 1 0 1 1 1 0 1 1 0 0 0 1 1 1 0 0 0 0 1 0 0 1 1 1 0 0 0 1 0 0 0 1 0 0 1 1 0 0 0 0 1 1 1 1 0 1 0 0 0
    0    1 0 0 1 0 0 0 0 1 0 0 1 0 0 0 1 1 1 1 0 0 1 1 0 0 1 0
   19    0 0 1 1 1 0 1 0 1 1 1 0 1 0 0 1 1 1 0 0 0 0 0 1 0 1 0 1 1 1 1 0 0 0 1 0 1 1 1 1 1 1 1 1 1 1 0 0 1 0 0
    1    0 0 1 0 1 1 1 0 1 1 0 0 1 1 1 1 0 0 0 0 0 1 0 1 0 1 0 0 0 1 0 0 0 1 1 0 1 0 1 0 0 1 1 1 1 1 0 1 0 0 0
    0    1 0 0 1 0 0 0 0 1 0 0 0 0 1 0 1 1 1 1 0 0 1 1 0 0 1 0
   20    0 0 1 1 1 0 1 1 1 1 1 1 1 0 0 0 1 0 0 0 0 1 0 1 0 1 0 1 1 0 1 0 0 0 1 0 1 1 1 1 1 1 1 1 1 1 0 0 1 1 0
    1    0 0 1 0 1 1 1 0 1 1 0 1 1 1 1 0 0 0 0 0 0 0 0 1 1 1 0 0 0 1 0 0 0 1 0 0 1 1 1 0 1 1 1 1 1 1 0 1 0 0 0
    0    1 0 0 1 0 0 0 0 1 0 0 0 0 1 0 1 1 1 0 0 0 1 1 0 0 1 0
   21    0 0 1 1 1 1 1 1 1 1 1 1 1 0 0 1 1 0 0 0 0 0 0 1 0 1 0 0 1 1 0 0 0 1 1 0 0 1 1 1 1 1 1 1 1 1 0 0 1 0 0
    0    0 0 1 0 1 1 0 0 1 1 1 0 1 1 1 1 1 0 0 0 1 1 0 1 1 1 0 0 0 1 0 0 0 0 0 0 1 0 0 1 1 1 1 1 1 1 0 1 0 0 0
    0    1 0 0 1 0 0 0 0 1 0 0 1 0 1 0 0 1 1 1 0 0 1 1 0 0 1 0
   22    0 0 1 1 1 0 1 1 1 1 1 1 0 0 0 1 1 0 0 0 0 0 0 1 0 1 0 1 1 1 1 0 0 0 1 0 1 1 1 1 1 1 1 1 1 1 0 0 1 0 1
    1    1 0 1 0 1 1 1 0 1 1 0 1 1 1 1 1 0 0 1 0 0 1 0 1 1 1 0 0 0 1 0 0 0 1 0 0 1 1 0 0 1 1 1 1 1 1 0 1 0 0 0
    0    1 0 0 1 0 0 0 0 1 0 0 1 0 1 0 1 1 1 1 0 0 1 1 0 0 1 0
   23    0 0 1 1 1 0 1 0 1 1 1 1 0 0 0 1 1 0 0 1 0 0 0 1 0 1 0 1 0 1 1 0 0 0 1 0 1 1 1 1 1 1 1 1 1 1 0 1 1 0 1
    1    0 0 1 0 1 0 1 0 1 0 0 0 1 1 1 0 1 0 0 0 0 0 0 1 1 1 0 0 0 1 0 0 0 1 1 0 1 1 1 1 1 1 1 1 1 1 0 1 0 0 0
    0    1 0 0 1 0 0 0 0 1 0 0 1 0 1 0 0 1 1 1 0 0 1 1 0 0 1 0
   24    0 0 1 1 1 0 1 1 1 1 1 0 0 0 0 1 0 0 1 0 0 1 0 1 0 1 0 1 1 1 1 0 0 0 1 0 1 1 1 1 1 1 1 1 1 1 0 0 0 1 1
    1    0 0 1 0 1 1 1 0 1 1 0 1 0 1 1 1 0 0 0 0 0 1 0 1 1 1 0 0 0 1 0 0 0 1 1 0 1 1 0 1 0 1 1 1 1 1 0 1 0 0 0
    0    1 0 0 1 0 0 0 0 1 0 0 0 0 1 0 1 1 1 1 0 0 1 1 0 0 1 0
   25    0 0 1 1 1 0 0 1 0 1 1 0 0 1 0 1 1 0 0 0 0 0 0 1 0 1 0 1 1 1 0 1 0 0 1 0 1 1 1 1 1 1 1 1 1 1 0 0 1 0 0
    1    0 0 1 1 1 1 1 0 1 1 0 0 1 1 1 1 0 0 0 0 0 1 0 1 1 1 0 0 0 1 0 0 0 1 0 0 1 1 0 0 1 1 1 1 1 1 0 1 0 0 0
    0    1 0 0 1 0 0 0 0 1 0 0 0 0 1 0 1 1 1 1 0 0 1 1 0 0 1 0
   26    0 0 1 1 1 0 1 1 1 1 1 1 1 0 0 0 1 0 0 0 0 0 0 1 0 1 0 1 0 1 1 0 0 0 1 0 1 1 1 1 1 1 1 1 1 1 0 0 1 0 1
    1    1 0 1 0 1 1 1 0 1 1 0 1 1 1 1 1 0 0 1 0 0 0 0 1 1 1 0 0 0 1 0 0 0 1 0 0 1 1 1 0 0 1 1 1 1 1 0 1 0 0 0
    0    1 0 0 1 0 0 0 0 1 0 0 1 1 1 0 0 1 1 1 0 0 1 1 0 0 1 0
   27    0 0 1 1 1 0 1 0 1 1 1 1 0 0 0 1 1 0 0 0 0 0 0 1 0 1 0 0 1 1 1 0 0 0 1 0 1 1 1 1 1 1 1 1 1 1 0 0 1 0 0
    1    0 0 1 0 1 1 1 0 1 1 0 1 0 1 1 0 1 1 0 0 0 0 0 1 1 1 0 0 0 1 0 0 0 0 0 1 1 1 1 0 0 1 1 1 1 1 0 1 0 0 0
    0    1 0 0 1 0 0 0 0 1 0 1 1 0 1 0 0 1 1 1 0 0 1 1 0 0 1 0
   28    0 0 1 1 1 0 1 1 1 1 1 0 0 0 0 1 1 0 0 0 0 0 0 1 0 1 0 0 1 1 1 0 0 0 1 0 1 1 1 1 1 1 1 1 1 1 0 0 1 0 1
    1    0 0 1 0 1 1 0 0 1 1 0 0 0 1 1 1 0 0 0 0 1 1 0 1 1 1 0 0 0 1 0 0 0 1 0 0 1 1 1 1 0 1 1 1 1 1 0 1 0 0 0
    0    1 0 0 1 0 0 0 0 1 0 0 0 0 0 1 1 1 1 1 0 0 1 1 0 0 1 0
   29    0 0 1 1 1 0 1 1 1 1 1 1 0 0 0 1 0 1 0 0 0 0 0 1 0 1 0 1 1 1 1 0 0 0 1 0 1 1 1 1 1 1 1 1 1 1 0 0 1 0 1
    1    1 0 1 1 1 1 1 0 1 1 0 1 0 1 1 1 0 1 1 0 1 1 0 1 1 1 0 0 0 1 0 0 0 1 0 0 1 1 0 1 1 1 1 1 1 1 0 1 0 0 0
    0    1 0 0 1 0 0 0 0 1 0 0 1 0 1 0 1 1 1 1 0 0 1 1 0 0 1 0
   30    0 0 1 1 1 0 1 1 1 1 1 1 0 1 0 1 1 0 0 0 0 0 0 1 0 1 0 1 0 1 0 1 0 0 1 0 1 1 1 1 1 1 1 1 1 1 0 0 1 0 0
    1    0 1 0 0 1 1 1 0 1 1 0 0 1 1 1 1 1 0 0 0 0 0 0 1 1 1 0 0 0 1 0 0 0 0 0 0 1 1 0 0 0 0 1 1 1 1 0 1 0 0 0
    0    1 0 0 1 0 0 0 0 1 0 0 0 0 0 0 1 1 1 1 0 0 1 1 0 0 1 0
   31    0 0 1 1 1 0 1 0 1 1 1 1 0 1 0 1 1 0 0 0 0 0 0 1 0 1 0 1 0 1 1 1 0 0 1 0 1 1 1 1 1 1 1 1 1 1 0 0 0 0 0
    0    0 0 1 0 1 0 1 0 1 1 0 0 0 1 1 1 1 0 0 0 1 0 0 1 1 1 0 0 0 1 0 0 0 1 1 0 1 1 1 0 0 0 1 1 1 1 0 1 0 0 0
    0    1 0 0 1 0 0 0 0 1 0 1 1 0 1 0 1 1 1 1 0 0 1 1 0 0 1 0
   32    0 0 1 1 1 0 1 1 1 1 1 1 0 0 0 1 1 1 0 0 0 0 0 1 0 1 0 1 0 1 1 1 0 0 1 0 1 1 1 1 1 1 1 1 1 1 0 0 1 0 1
    1    1 0 1 0 1 1 1 0 1 1 0 1 1 1 1 1 0 0 0 0 1 0 0 1 1 1 0 0 0 1 0 0 0 1 0 0 1 1 1 0 0 1 1 1 1 1 0 1 0 0 0
    0    1 0 0 1 0 0 0 0 1 0 0 1 0 1 0 1 1 1 1 0 0 1 1 0 0 1 0
   33    0 0 1 1 1 0 1 1 1 1 1 1 0 0 0 1 1 0 0 0 0 1 0 1 0 1 0 1 1 1 1 0 0 0 1 0 1 1 1 1 1 1 1 1 1 1 0 0 1 1 0
    1    1 0 1 0 1 1 0 0 1 1 0 1 1 1 1 1 1 0 0 0 1 1 0 1 1 1 0 0 0 1 0 0 1 0 0 0 1 1 1 1 0 0 1 1 1 1 0 1 0 0 0
    0    1 0 0 1 0 0 0 0 1 0 0 1 0 1 0 1 1 0 1 0 0 1 1 0 0 1 0
   34    0 0 1 1 1 0 1 1 1 1 1 1 0 0 0 0 1 0 0 0 0 1 0 1 0 1 0 1 1 1 1 0 0 0 1 0 1 1 1 1 1 1 1 1 1 1 0 0 1 0 0
    1    0 0 1 0 1 1 1 0 1 1 0 1 1 1 1 0 0 0 0 0 0 0 0 0 1 1 0 0 0 1 0 0 0 0 0 0 1 1 1 1 1 1 1 1 1 1 0 1 0 0 0
    0    1 0 0 1 0 0 0 0 1 0 0 1 0 1 0 0 1 1 0 0 0 1 1 0 0 1 0
   35    0 0 1 1 1 0 1 0 1 1 1 1 1 0 0 1 1 0 0 0 0 1 0 1 0 1 0 1 1 0 1 0 0 0 1 0 0 1 1 1 1 1 1 1 1 1 0 0 1 1 0
    1    0 0 1 0 1 1 1 0 1 1 0 1 1 1 1 1 1 1 0 0 0 0 0 0 1 1 0 0 0 1 0 0 0 1 0 1 1 1 1 0 0 1 1 1 1 1 0 1 0 0 0
    0    1 0 0 1 0 0 0 0 1 0 1 0 0 1 0 1 1 1 1 0 0 1 1 0 0 1 0
   36    0 0 1 1 1 0 1 0 1 1 1 1 0 0 0 1 1 1 1 0 0 0 0 1 0 1 0 0 1 1 0 0 0 0 1 0 0 1 1 1 1 1 1 1 1 1 0 0 1 1 1
    0    1 0 1 0 1 1 1 0 1 1 0 0 0 1 1 0 1 1 0 0 0 1 0 1 1 1 0 0 0 1 0 0 0 1 1 0 1 1 0 0 1 1 1 1 1 1 0 1 0 0 0
    0    1 0 0 1 0 0 0 0 1 0 0 1 0 0 0 0 1 1 1 0 0 1 1 0 0 1 0
   37    0 0 1 1 1 0 1 0 1 0 1 1 1 0 0 1 1 0 0 0 0 0 0 1 0 1 0 1 0 1 1 0 0 0 1 0 1 1 1 1 1 1 1 1 1 1 0 0 1 0 0
    1    0 0 1 0 1 0 0 1 1 1 1 0 1 1 1 1 1 0 0 0 1 1 1 1 1 1 0 0 0 1 0 0 1 0 0 0 1 1 1 1 0 1 1 1 1 1 0 1 0 0 0
    0    1 0 0 1 0 0 0 0 1 0 0 1 0 1 0 0 1 1 1 0 0 1 1 0 0 1 0
   38    0 0 1 1 1 0 1 1 1 1 1 1 1 0 0 1 0 0 0 1 0 0 0 1 0 1 0 0 1 1 1 0 0 0 1 0 1 1 1 1 1 1 1 1 1 1 0 0 1 1 1
    0    0 0 1 0 1 1 1 0 1 1 0 1 1 1 1 1 0 0 0 0 0 1 0 1 1 1 0 0 0 1 0 0 0 0 0 0 0 1 1 1 0 0 1 1 1 1 0 1 0 0 0
    0    1 0 0 1 0 0 0 0 1 0 0 0 0 0 0 1 0 1 1 0 0 1 1 0 0 1 0
   39    0 0 1 1 1 0 1 1 1 1 1 1 1 0 0 1 1 0 0 0 0 0 0 1 0 1 0 0 1 1 0 0 0 0 1 0 0 1 1 1 1 1 1 1 1 1 0 0 1 0 0
    0    0 0 1 0 1 1 0 0 1 1 1 0 1 1 1 1 1 0 0 0 1 1 0 1 1 1 0 0 0 1 0 0 0 0 0 0 1 0 0 1 1 1 1 1 1 1 0 1 0 0 0
    0    1 0 0 1 0 0 0 0 1 0 0 1 0 1 0 0 1 1 1 0 0 1 1 0 0 1 0
   40    0 0 1 1 1 0 1 0 1 1 1 0 0 1 0 1 1 0 0 0 0 0 0 1 0 1 0 1 1 1 1 1 0 0 1 0 1 1 1 1 1 1 1 1 1 1 0 0 0 0 0
    1    0 0 1 0 1 0 1 0 1 1 0 0 1 1 1 1 1 0 0 0 0 0 0 1 1 1 0 0 0 1 0 0 0 1 1 0 1 1 1 0 0 1 1 1 1 1 0 1 0 0 0
    0    1 0 0 1 0 0 0 0 1 0 1 1 0 1 0 0 1 1 1 0 0 1 1 0 0 1 0
   41    0 0 1 1 1 0 1 1 1 1 1 1 1 0 0 1 1 0 0 0 0 0 0 1 0 1 0 1 1 1 1 0 0 0 1 0 1 1 1 1 1 1 1 1 1 1 0 0 1 0 0
    1    0 0 1 0 1 1 1 0 1 1 0 0 1 1 1 1 0 0 0 0 1 1 0 1 1 1 0 0 0 1 0 0 0 1 0 0 1 1 1 0 0 1 1 1 1 1 0 1 0 0 0
    0    1 0 0 1 0 0 0 0 1 0 0 0 0 1 0 1 1 1 1 0 0 1 1 0 0 1 0
   42    0 0 1 1 1 0 1 0 1 1 1 1 0 1 0 1 1 0 0 0 0 0 0 1 0 1 0 1 0 1 1 1 0 0 1 0 1 1 1 1 1 1 1 1 1 1 0 0 1 0 0
    1    0 0 1 0 1 1 1 0 1 1 0 0 1 1 1 1 0 0 0 0 0 0 0 1 1 1 0 0 0 1 0 0 0 1 0 0 1 1 1 0 0 1 1 1 1 1 0 1 0 0 0
    0    1 0 0 1 0 0 0 0 1 0 1 1 0 1 0 0 1 1 1 0 0 1 1 0 0 1 0
   43    0 0 1 1 1 0 1 1 1 1 1 1 1 0 0 1 0 0 0 1 0 1 0 1 0 1 0 1 1 1 1 0 0 0 1 0 1 1 1 1 1 1 1 1 1 1 0 0 1 1 0
    1    0 0 1 0 1 1 1 0 1 1 0 1 1 1 1 1 1 0 0 0 1 1 0 1 1 1 0 0 0 1 0 0 0 0 0 0 1 1 1 1 0 1 1 1 1 1 0 1 0 0 0
    0    1 0 0 1 0 0 0 0 1 0 0 0 0 1 0 1 1 1 1 0 0 1 1 0 0 1 0
   44    0 0 1 1 1 0 1 0 1 1 0 1 1 0 0 1 1 0 0 1 0 0 0 1 0 1 0 1 0 1 1 0 0 0 0 0 1 1 1 1 1 1 1 1 1 1 0 0 1 0 0
    1    0 0 1 0 1 0 1 0 1 1 0 0 1 1 1 1 1 0 0 0 1 1 0 1 1 1 0 0 0 1 0 0 0 1 0 0 1 1 0 1 0 1 1 1 1 1 0 1 0 0 0
    0    1 0 0 1 0 0 0 0 1 0 0 1 0 1 0 0 1 1 1 0 0 1 1 0 0 1 0
   45    0 0 1 1 1 0 1 1 1 1 1 1 0 1 0 1 0 0 0 0 0 1 0 1 0 1 0 1 1 1 1 0 0 0 1 0 1 1 1 1 1 1 1 1 1 1 0 0 0 1 0
    1    0 0 1 0 1 1 1 0 1 1 0 1 1 1 1 1 1 0 0 0 0 0 0 1 1 1 0 0 0 1 0 0 0 0 1 0 1 1 1 0 0 1 1 1 1 1 0 1 0 0 0
    0    1 0 0 1 0 0 0 0 1 0 1 0 0 1 0 1 1 1 1 0 0 1 1 0 0 1 0
   46    0 0 1 1 1 0 1 0 1 1 1 1 1 0 0 1 1 0 1 0 0 0 0 1 0 1 0 1 0 1 1 0 0 0 1 0 1 1 1 1 1 1 1 1 1 1 0 0 1 1 0
    1    0 0 1 0 1 0 1 0 1 1 0 0 1 1 1 0 1 1 0 0 0 0 0 1 1 1 0 0 0 1 0 0 0 1 1 0 1 1 1 0 0 1 1 1 1 1 0 1 0 0 0
    0    1 0 0 1 0 0 0 0 1 0 0 1 0 1 0 0 1 1 1 0 0 1 1 0 0 1 0
   47    0 0 1 1 1 0 1 0 1 0 1 1 0 0 0 1 1 0 0 0 0 0 0 1 0 1 0 0 1 1 0 0 0 0 1 0 0 1 1 1 1 1 1 1 1 1 0 0 1 0 1
    0    1 0 1 0 1 1 0 1 1 1 1 0 0 1 1 1 1 0 0 0 1 1 1 1 1 1 0 0 0 1 0 0 1 0 0 0 1 1 0 1 1 1 1 1 1 1 0 1 0 0 0
    0    1 0 0 1 0 0 0 0 1 0 0 1 0 0 0 0 1 1 1 0 0 1 1 0 0 1 0
   48    0 0 1 1 1 0 1 1 1 1 1 0 0 0 0 1 1 0 0 0 0 0 0 1 0 1 0 1 1 1 1 0 0 1 1 0 0 1 1 1 1 1 1 1 1 1 0 1 1 0 0
    1    0 0 1 0 1 1 1 0 1 1 0 0 0 1 1 1 0 0 0 0 0 0 0 1 1 1 0 0 0 1 0 0 0 1 0 0 1 1 1 0 0 1 1 1 1 1 0 1 0 0 0
    0    1 0 0 1 0 0 0 0 1 0 0 1 1 0 0 1 1 1 0 0 0 1 1 0 0 1 0
   49    0 0 1 1 1 1 1 0 1 1 0 0 0 0 0 1 1 1 0 0 0 1 0 1 0 1 0 1 1 1 1 0 0 0 1 0 1 1 1 1 1 1 1 1 1 1 0 0 0 0 0
    1    0 0 1 0 1 1 1 0 1 1 0 0 1 1 1 1 0 0 0 0 0 0 0 1 1 1 0 0 0 1 0 0 0 0 1 0 1 1 1 1 0 1 1 1 1 1 0 1 0 0 0
    0    1 0 0 1 0 0 0 0 1 0 1 1 0 1 0 1 1 1 1 0 0 1 1 0 0 1 0
   50    0 0 1 1 1 0 1 1 1 1 1 1 1 0 0 1 1 0 0 0 0 1 0 1 0 1 0 1 1 1 1 0 0 0 1 0 1 1 1 1 1 1 1 1 1 1 0 0 1 0 0
    1    0 0 1 0 1 1 1 0 1 1 0 0 1 1 1 1 0 1 0 0 0 0 0 1 1 1 0 0 0 1 0 0 0 1 0 0 1 1 1 1 0 1 1 1 1 1 0 1 0 0 0
    0    1 0 0 1 0 0 0 0 1 0 0 1 0 1 0 0 1 1 1 0 0 1 1 0 0 1 0
   51    0 0 1 1 1 0 0 1 1 1 1 1 1 0 0 1 1 0 0 0 0 0 0 1 0 1 0 1 1 0 1 0 0 0 1 0 1 1 1 1 1 1 1 1 1 1 0 0 1 0 0
    1    0 0 1 0 1 1 0 0 1 1 0 0 1 1 1 1 1 0 0 0 1 0 1 1 1 1 0 0 0 1 0 0 0 0 0 0 1 1 1 1 1 1 1 1 1 1 0 1 0 0 0
    0    1 0 0 1 0 0 0 0 1 0 0 0 0 1 0 0 1 1 1 0 0 1 1 0 0 1 0
   52    0 0 1 1 1 0 1 0 1 1 1 1 0 1 0 1 1 0 0 0 0 1 0 1 0 1 0 1 1 1 1 1 0 0 1 0 1 1 1 1 1 1 1 1 1 1 0 0 1 0 1
    1    0 0 1 0 1 0 1 0 1 1 0 0 1 1 1 1 1 1 0 0 0 0 0 1 1 1 0 0 0 1 0 0 0 1 1 0 1 0 1 1 1 1 1 1 1 1 0 1 0 0 0
    0    1 0 0 1 0 0 0 0 1 1 1 1 0 1 0 0 1 1 1 0 0 1 1 0 0 1 0
   53    0 0 1 1 1 0 1 1 1 1 1 1 1 0 0 1 1 0 0 0 0 0 0 1 0 1 0 1 1 1 1 0 0 0 1 0 1 1 1 1 1 1 1 1 1 1 0 0 1 0 0
    1    0 0 1 0 1 1 1 0 1 1 0 0 1 1 1 1 0 0 0 0 0 1 0 1 1 1 0 0 0 1 0 0 0 1 0 0 1 1 1 0 0 1 1 1 1 1 0 1 0 0 0
    0    1 0 0 1 0 0 0 0 1 1 0 0 0 1 0 1 1 1 1 0 0 1 1 0 0 1 0
   54    0 0 1 1 1 0 1 0 1 1 1 1 1 0 0 1 1 0 0 1 0 0 0 1 0 1 0 1 0 1 1 0 0 0 1 0 1 1 1 1 1 1 1 1 1 1 0 1 1 0 1
    1    0 0 1 0 1 0 1 0 1 1 0 0 1 1 0 1 1 1 0 0 1 0 0 1 1 1 0 0 0 1 0 0 0 1 1 0 1 1 1 1 1 1 1 1 1 1 0 1 0 0 0
    0    1 0 0 1 0 0 0 0 1 1 0 1 0 1 0 0 1 1 1 0 0 1 1 0 0 1 0
   8800000.00000000        1618033.00000000       0.000000000000000E+000
  1.136363636363636E-007   6794932.00000000        3852669.00000000     
           1          43          19
   1958194.00000000        5681093.00000000        6309085.00000000     
   8448560.00000000        1709474.00000000        225855.000000000     
   1031729.00000000        3632468.00000000        6868489.00000000     
   7027792.00000000        8333236.00000000        6354062.00000000     
   5208513.00000000        3858936.00000000        3321581.00000000     
   7741876.00000000        823760.000000000        7928196.00000000     
   3743131.00000000        839073.000000000        7188532.00000000     
   3012639.00000000        3074053.00000000        3246209.00000000     
   6167120.00000000        7204542.00000000        5672194.00000000     
   8105546.00000000        6730248.00000000        7512243.00000000     
   5395221.00000000        7379604.00000000        6696000.00000000     
   4826672.00000000        2363343.00000000        4480962.00000000     
   1694345.00000000        4481074.00000000        449767.000000000     
   4108690.00000000        2175658.00000000        8552123.00000000     
   6794932.00000000        2786518.00000000        3092590.00000000     
   1853727.00000000        1473485.00000000        6566803.00000000     
   8455545.00000000        8623689.00000000        328524.000000000     
   2801119.00000000        5673852.00000000        4627442.00000000     
   692346.000000000     
   8800000.00000000        1618033.00000000       0.000000000000000E+000
  1.136363636363636E-007   1396907.00000000        8395837.00000000     
           1           6          37
   3819942.00000000        533876.000000000        2888789.00000000     
   844936.000000000        2226535.00000000        1396907.00000000     
   1598010.00000000        6233058.00000000        8663038.00000000     
   3450358.00000000        3149300.00000000        8128863.00000000     
   6620081.00000000        8049211.00000000        6045139.00000000     
   7704304.00000000        702470.000000000        3740315.00000000     
   725745.000000000        3225596.00000000        7909785.00000000     
   6632492.00000000        704621.000000000        6995637.00000000     
   5036092.00000000        7020657.00000000        7032939.00000000     
   7838505.00000000        6983761.00000000        1944586.00000000     
   3149678.00000000        2713717.00000000        5448622.00000000     
   2105789.00000000        5725559.00000000        1390190.00000000     
   8339772.00000000        2993795.00000000        6609929.00000000     
   3130322.00000000        1371055.00000000        3836647.00000000     
   2550269.00000000        5195066.00000000        3294452.00000000     
   7487625.00000000        5009644.00000000        7121618.00000000     
   2507184.00000000        1611685.00000000        8792894.00000000     
   2630247.00000000        544733.000000000        8273773.00000000     
   1864577.00000000     
