          92          54   1.00000000000000     
    1       2    0 1 0 0 0 0 0 1 0 0 1 0 0 0 1 1 1 0 0 0 1 0 1 1 0 0 1 1 1 0 0 1 0 0 1 1 0 0 1 0 0 1 1 0 0 1 0 1 1 1 1
    0       1    0 0 1 0 0 1 0 0 1 1 1 1 1 0 0 0 1 0 0 1 0 0 1 0 1 1 0 0 0 0 0 1 0 1 1 0 0 0 0 1 1 1 1 1 1 0 0 0 0 0 1
    1       1    1 1 0 0 0 0 1 0 1 1 1 1 1 1 0 1 1 0 0 1 1 0 0 1 1
    2       2    0 1 0 0 0 0 0 1 0 0 1 0 0 0 1 1 1 0 0 0 1 0 1 1 1 0 1 1 1 0 0 0 0 0 0 1 0 0 1 0 0 1 1 0 0 1 0 1 1 1 1
    0       1    0 0 1 0 0 1 0 0 1 1 1 1 1 0 0 0 1 0 0 1 0 0 1 0 1 1 0 0 0 0 0 1 0 1 1 0 0 0 1 1 1 1 1 1 1 0 0 0 0 0 1
    1       1    1 1 0 0 0 0 1 0 1 1 1 1 1 1 0 1 1 0 0 1 1 0 0 1 1
    3       2    0 1 0 0 0 0 0 1 0 0 1 0 1 0 1 1 1 0 0 0 1 0 1 1 0 0 1 1 1 0 0 0 0 0 1 1 0 0 1 0 0 1 1 0 0 1 0 1 1 1 1
    0       1    0 0 1 0 0 1 0 0 1 0 1 1 1 0 0 0 1 0 0 1 0 0 1 1 1 1 0 0 0 0 0 1 0 1 1 0 0 0 0 0 0 1 1 1 1 0 0 0 0 0 1
    1       1    1 1 0 0 0 0 1 0 1 1 1 1 1 1 0 1 1 0 0 1 1 0 0 1 1
    4       2    0 1 0 0 0 0 0 1 0 0 1 0 0 1 1 0 1 1 0 1 0 0 1 0 1 0 1 1 1 0 1 1 0 1 1 1 0 0 1 0 0 1 1 0 0 1 0 1 1 1 1
    0       1    0 0 1 0 0 1 0 0 1 0 1 0 1 0 0 0 1 0 1 1 0 0 1 0 1 1 0 0 0 0 0 0 0 1 1 0 1 0 0 1 0 1 1 1 1 0 0 0 0 0 1
    1       1    1 1 0 0 0 0 1 0 1 1 1 1 1 0 0 1 1 0 0 1 1 0 0 1 1
    5       2    0 1 0 0 0 0 0 1 0 0 1 0 0 0 1 0 1 1 0 0 1 0 1 0 1 0 1 1 1 0 1 1 0 0 1 1 0 0 1 0 0 1 1 0 0 1 0 1 1 1 1
    0       1    0 0 1 0 0 1 0 0 1 0 1 1 1 0 0 0 1 0 1 1 0 0 1 0 1 1 0 0 0 0 0 1 0 1 1 0 0 0 0 1 1 1 1 1 1 0 0 0 0 0 1
    1       1    1 1 0 0 0 0 1 0 1 1 1 1 1 0 0 1 1 0 0 1 1 0 0 1 1
    6       2    0 1 0 0 0 0 0 1 0 0 1 0 0 0 1 1 1 0 0 0 1 0 1 1 0 0 1 1 1 0 0 1 0 0 1 1 0 0 1 0 0 1 1 0 0 1 0 1 1 1 1
    0       1    0 0 1 0 0 1 0 0 1 1 1 1 1 0 0 0 1 0 0 1 0 0 1 0 1 1 0 0 0 0 0 1 0 1 1 0 0 0 0 1 1 1 1 1 1 0 0 0 0 0 1
    1       1    1 1 0 0 0 0 1 0 1 1 1 1 1 1 0 1 1 0 0 1 1 0 0 1 1
    7       2    0 1 0 0 0 0 0 1 0 0 1 0 1 0 1 0 1 1 0 1 1 0 1 1 1 0 1 1 1 0 0 1 1 0 0 1 0 0 1 0 0 1 1 0 0 1 0 1 1 1 1
    0       1    0 0 1 0 0 1 0 0 1 0 1 0 1 0 1 0 1 0 1 1 0 1 1 0 1 1 0 0 0 0 0 1 0 1 0 0 1 0 0 1 0 1 1 1 1 0 0 0 0 0 1
    1       1    1 1 0 0 0 0 1 0 1 0 1 1 0 1 0 1 1 0 0 1 1 0 0 1 1
    8       2    0 1 0 0 0 0 0 1 0 0 1 0 0 0 1 1 1 0 0 0 1 0 1 1 0 0 1 1 1 0 0 0 0 0 0 1 0 0 1 0 0 1 1 0 0 1 0 1 1 1 1
    0       1    0 0 1 0 0 1 0 0 1 1 1 0 1 0 0 0 1 0 0 1 0 0 1 0 1 1 0 0 0 0 0 0 1 0 1 0 1 0 0 0 1 1 1 1 1 0 0 0 0 0 1
    1       1    1 1 0 0 0 0 1 0 1 1 1 1 1 1 0 1 1 0 0 1 1 0 0 1 1
    9       2    0 1 0 0 0 0 0 1 0 0 1 0 1 1 1 1 1 0 0 0 1 0 0 1 1 1 1 1 1 0 0 0 0 0 0 0 0 0 1 0 0 1 1 0 0 0 0 1 1 1 1
    0       1    0 0 1 0 0 1 0 0 1 0 1 0 1 0 1 0 1 0 1 1 1 1 0 1 1 1 0 0 0 0 0 1 0 1 1 1 0 0 0 0 1 1 1 1 1 0 0 0 0 0 1
    1       1    1 1 0 0 0 1 0 0 1 1 1 1 0 0 0 1 1 0 0 1 1 0 0 1 1
   10       2    0 1 0 0 0 0 0 1 0 0 1 0 1 1 1 1 1 0 0 0 1 0 0 1 1 1 1 1 1 0 0 0 0 0 0 0 0 0 1 0 0 1 1 0 0 0 0 1 1 1 1
    0       1    0 0 1 0 0 1 0 0 1 0 1 0 1 0 1 0 1 0 1 1 1 1 0 1 1 1 0 0 0 0 0 1 0 1 1 1 0 0 0 0 1 1 1 1 1 0 0 0 0 0 1
    1       1    1 1 0 0 0 1 0 0 1 1 1 1 0 0 1 1 1 0 0 1 1 0 0 1 1
   11       2    0 1 0 0 0 0 0 1 0 0 1 0 1 1 1 1 1 0 0 0 1 0 0 1 1 1 1 1 1 0 0 0 0 0 0 0 0 0 1 0 0 1 1 0 0 0 0 1 1 1 1
    0       1    0 0 1 0 0 1 0 1 1 0 1 0 1 0 1 0 1 0 1 1 1 1 0 1 1 1 0 0 0 0 0 1 0 1 1 1 0 0 0 0 1 1 1 1 1 0 0 0 0 0 1
    1       1    1 1 0 0 0 1 0 0 1 1 1 1 0 0 0 1 1 0 0 1 1 0 0 1 1
   12       2    0 1 0 0 0 0 0 1 0 0 1 0 1 1 1 1 1 0 0 0 1 0 0 1 1 0 1 1 1 0 1 1 0 0 1 1 0 0 1 0 0 1 1 0 0 0 0 1 1 1 1
    0       1    0 0 1 0 0 1 0 0 1 1 1 1 1 0 0 0 0 0 0 1 0 0 1 1 1 1 0 0 0 0 0 1 0 1 1 0 1 0 0 1 1 1 1 1 1 0 0 0 0 0 1
    1       1    1 1 0 0 0 1 0 0 1 1 1 1 1 0 0 1 1 0 0 1 1 0 0 1 1
   13       2    0 1 0 0 0 0 0 1 0 0 1 0 1 1 1 1 1 0 0 1 1 0 0 1 1 1 1 1 1 0 0 0 0 0 0 0 0 0 1 0 0 1 1 0 0 0 0 1 1 1 1
    0       1    0 0 1 0 0 1 0 1 1 0 1 0 1 0 1 0 1 0 1 1 1 1 0 1 1 1 0 0 0 0 0 1 0 1 1 1 0 0 0 0 1 1 1 1 1 0 0 0 0 0 1
    1       1    1 1 0 0 0 1 0 0 1 1 1 1 0 0 0 1 1 0 0 1 1 0 0 1 1
   14       2    0 1 0 0 0 0 0 1 0 0 1 0 0 0 1 1 1 0 0 1 1 0 1 1 0 1 1 1 1 0 1 1 0 1 1 1 1 0 1 0 0 1 1 0 0 1 0 1 1 1 1
    0       1    0 0 0 0 0 1 0 1 1 1 1 1 1 0 0 0 0 0 1 1 0 0 1 0 1 1 0 0 0 0 0 0 0 0 1 0 1 0 0 0 1 1 1 1 1 0 0 0 0 1 1
    1       1    1 1 0 0 0 0 1 0 0 1 1 1 1 1 1 1 1 0 0 1 1 0 0 1 1
   15       2    0 1 0 0 0 0 0 1 0 0 1 0 1 0 1 1 1 0 0 0 1 0 0 0 1 1 1 1 0 0 0 0 0 0 0 0 0 0 1 0 0 1 1 0 0 1 0 1 1 1 1
    0       0    1 1 0 1 1 1 0 0 1 0 1 1 1 0 1 0 1 0 1 1 1 1 0 1 1 1 0 0 0 0 0 1 0 1 1 0 0 1 0 0 1 1 1 1 1 0 0 0 0 0 1
    1       1    1 1 0 0 0 1 1 1 1 1 1 1 1 0 0 1 1 0 0 1 1 0 0 1 1
   16       2    0 1 0 0 0 0 0 1 0 0 1 0 0 0 1 1 1 0 0 0 1 0 1 1 1 1 1 1 1 0 1 0 0 0 0 1 0 0 1 0 0 1 1 1 1 1 0 1 1 1 1
    0       0    0 0 1 0 0 1 0 0 1 0 1 1 1 0 0 0 0 0 1 1 0 0 1 0 1 1 0 0 0 0 0 1 0 0 1 0 1 0 0 1 1 1 1 1 1 0 0 0 1 0 1
    1       1    1 1 0 0 0 0 1 0 1 1 0 0 1 0 0 0 1 0 0 1 1 0 0 1 1
   17       2    0 1 0 0 0 0 0 1 0 0 1 0 0 0 1 1 1 0 0 0 1 0 1 1 1 1 1 1 1 0 0 0 0 1 1 1 0 0 1 0 0 1 1 1 0 0 0 1 1 1 1
    0       0    0 0 1 0 0 1 0 0 1 1 1 0 1 0 0 0 0 1 1 1 1 0 1 0 1 1 0 0 0 0 0 1 1 1 1 1 1 0 0 0 1 1 1 1 1 0 0 0 1 1 1
    1       1    1 1 0 0 0 1 1 0 1 1 1 1 1 0 0 1 1 0 0 1 1 0 0 1 1
   18       2    0 1 0 0 0 0 0 1 0 0 1 0 0 0 1 0 1 1 0 0 1 0 1 1 1 0 0 1 1 0 1 1 0 0 0 1 1 0 1 0 0 1 1 0 0 0 1 1 1 1 1
    0       0    0 1 1 1 0 1 0 0 1 0 1 0 1 0 0 0 1 0 1 1 0 0 1 0 1 1 0 0 0 0 0 1 1 1 0 0 1 0 0 1 0 1 1 1 1 0 0 0 1 0 1
    1       1    1 1 0 0 1 0 1 0 0 1 0 1 1 0 0 1 1 0 0 1 1 0 0 1 1
   19       2    0 1 0 0 0 0 0 1 0 0 1 0 1 0 1 0 1 1 0 0 0 0 1 1 1 0 1 1 1 0 0 1 0 0 0 1 1 0 1 0 0 1 1 0 0 0 1 1 1 1 1
    0       0    0 1 1 1 0 1 0 0 1 0 1 0 1 0 1 0 1 0 1 1 0 0 1 0 1 1 0 0 0 0 0 0 1 1 0 0 1 0 0 1 0 1 1 1 1 0 0 0 1 0 1
    1       1    1 1 0 0 1 0 1 0 1 1 0 1 1 0 0 1 1 0 0 1 1 0 0 1 1
   20       2    0 1 0 0 0 0 0 1 0 0 1 0 1 0 0 1 1 0 0 0 1 0 1 1 1 0 1 1 1 0 0 1 0 0 1 1 1 0 1 0 0 1 1 1 0 1 1 1 1 1 1
    0       0    0 0 1 1 0 0 0 1 1 1 1 0 1 0 1 0 1 0 1 1 0 0 1 1 1 1 0 0 0 0 0 0 1 1 0 0 1 0 0 1 0 1 1 1 1 0 0 0 0 1 1
    1       1    1 1 0 0 0 1 1 0 1 1 0 1 1 0 0 1 1 0 0 1 1 0 0 1 1
   21       2    0 1 0 0 0 0 0 1 0 0 1 0 0 0 1 1 1 0 1 0 1 0 1 1 1 0 1 1 1 0 0 0 0 1 1 1 1 0 1 0 0 1 1 1 0 1 1 1 1 1 1
    0       0    0 0 1 1 0 0 0 0 1 1 1 1 1 0 1 1 1 0 1 1 1 0 1 1 1 1 0 0 0 0 0 1 1 1 1 0 1 0 0 0 0 1 1 1 1 0 0 0 0 1 1
    1       1    1 1 0 0 0 1 1 0 1 1 0 1 1 1 0 1 1 0 0 1 1 0 0 1 1
   22       2    0 1 0 0 0 0 0 1 0 0 1 0 1 0 1 1 1 1 0 0 1 0 1 1 1 1 1 1 0 0 0 0 0 1 0 0 0 0 1 0 0 1 1 1 0 1 0 1 1 1 1
    0       0    0 1 0 1 0 1 0 0 1 0 1 0 1 0 0 0 1 1 1 1 0 1 0 0 1 1 0 0 0 0 0 0 1 1 1 0 1 1 0 1 0 1 1 1 1 0 0 0 0 0 1
    1       1    1 1 0 0 0 1 1 1 0 1 1 1 1 0 0 1 1 0 0 1 1 0 0 1 1
   23       2    0 1 0 0 0 0 0 1 0 0 1 0 0 0 1 1 1 0 0 0 1 0 1 1 1 1 1 1 1 0 0 0 0 0 1 1 0 0 1 0 0 1 1 1 1 1 0 1 1 1 1
    0       0    0 0 1 0 0 1 0 0 1 1 1 0 1 0 0 0 1 0 0 1 0 0 1 0 1 1 0 0 0 0 0 1 1 1 1 0 0 0 1 1 1 1 1 1 1 0 0 0 0 0 1
    1       1    1 1 0 0 0 1 1 0 1 1 1 1 1 0 0 1 1 0 0 1 1 0 0 1 1
   24       2    0 1 0 0 0 0 0 1 0 0 1 0 0 0 1 1 1 0 0 0 1 0 1 1 0 0 1 1 1 0 1 0 0 0 1 1 0 0 1 0 0 1 1 1 0 1 0 1 1 1 1
    0       0    0 0 1 0 0 1 0 0 1 1 1 0 1 0 1 0 1 0 1 1 0 0 1 1 1 1 0 0 0 0 0 0 0 0 1 0 1 0 0 0 1 1 1 1 1 0 0 0 0 0 1
    1       1    1 1 0 0 1 0 1 0 0 1 1 1 1 0 0 1 1 0 0 1 1 0 0 1 1
   25       2    0 1 0 0 0 0 0 1 0 0 1 0 0 0 1 1 1 0 0 0 1 0 1 1 0 0 1 1 1 0 1 0 0 0 1 1 0 0 1 0 0 1 1 1 0 1 0 1 1 1 1
    0       0    0 0 1 0 0 1 0 0 1 1 1 0 1 0 0 0 1 0 1 1 0 0 1 1 1 1 0 0 0 0 0 0 0 0 1 0 1 0 0 0 1 1 1 1 1 0 0 0 0 0 1
    1       1    1 1 0 0 1 0 1 0 0 1 1 1 1 0 0 1 1 0 0 1 1 0 0 1 1
   26       2    0 1 0 0 0 0 0 1 0 0 1 0 0 0 1 1 1 0 0 0 1 0 1 1 0 0 1 1 1 0 1 0 0 0 0 1 1 0 1 0 0 1 1 1 0 1 0 1 1 1 1
    0       0    0 0 1 0 0 1 0 0 1 1 1 0 1 0 0 0 1 1 1 1 0 0 1 1 1 1 0 0 0 0 0 0 0 1 1 0 0 0 0 0 1 1 1 1 1 0 0 0 0 0 1
    1       1    1 1 0 0 1 0 1 0 0 1 1 1 1 0 0 1 0 0 0 1 1 0 0 1 1
   27       2    0 1 0 0 0 0 0 1 0 0 1 0 0 0 1 1 1 0 0 0 1 0 1 1 0 0 1 1 1 0 1 0 0 0 1 1 0 0 1 0 0 1 1 1 0 1 0 1 1 1 1
    0       0    0 0 1 0 0 1 0 0 1 1 1 0 1 0 1 0 1 0 1 1 1 0 1 1 1 1 0 0 0 0 0 0 0 0 1 0 1 0 0 0 1 1 1 1 1 0 0 0 0 0 1
    1       1    1 1 0 0 1 0 1 0 0 1 1 1 1 0 0 1 1 0 0 1 1 0 0 1 1
   28       2    0 1 0 0 0 0 0 1 0 0 1 0 0 1 1 1 0 0 0 0 1 0 1 1 0 0 1 1 0 0 1 1 0 0 1 1 0 0 1 0 0 1 1 1 0 1 0 1 1 1 1
    0       0    0 0 0 0 0 1 1 0 1 1 1 0 1 0 0 0 0 0 1 1 1 0 1 1 1 1 0 0 0 0 0 0 0 0 1 0 1 0 0 0 0 1 1 1 1 0 0 0 0 0 1
    1       1    1 1 0 0 1 1 0 0 0 1 1 1 1 0 0 1 0 1 0 1 1 0 0 1 1
   29       2    0 1 0 0 0 0 0 1 0 0 1 0 0 0 1 1 1 0 0 0 1 0 1 1 1 0 1 1 1 0 1 1 0 0 0 1 0 0 1 0 0 1 1 1 0 1 0 1 1 1 1
    0       0    0 0 0 0 0 0 0 0 1 1 1 0 1 0 0 0 1 0 0 1 1 0 1 1 1 1 0 0 0 0 0 1 0 0 1 0 1 0 0 0 0 1 1 1 1 0 0 0 0 0 1
    1       1    1 1 0 0 1 1 0 0 0 1 1 1 1 1 0 1 0 0 0 1 1 0 0 1 1
   30       2    0 1 0 0 0 0 0 1 0 0 1 0 1 0 0 1 1 1 0 0 1 0 0 1 0 1 1 1 0 0 1 0 0 0 0 1 0 0 1 0 0 1 1 0 1 1 0 1 1 1 1
    0       0    0 0 0 0 1 1 1 1 1 0 1 1 1 0 0 0 0 1 1 1 0 0 1 1 1 1 0 0 0 0 0 1 0 0 0 1 1 0 0 1 1 1 1 1 1 0 0 0 0 0 1
    1       1    1 1 0 1 0 0 0 0 0 1 0 0 1 0 0 0 1 0 0 1 1 0 0 1 1
   31       2    0 1 0 0 0 0 0 1 0 0 1 0 1 0 0 1 1 1 0 0 1 0 0 1 0 1 1 1 1 0 1 0 0 0 0 1 0 0 1 0 0 1 1 0 1 1 0 1 1 1 1
    0       0    0 0 0 0 1 0 1 1 1 0 1 1 1 0 1 0 0 1 0 1 0 0 0 0 1 1 0 0 0 0 0 1 0 0 0 0 1 0 0 0 1 1 1 1 1 0 0 0 0 0 1
    1       1    1 1 0 1 0 0 0 0 0 1 1 0 1 0 0 1 1 0 0 1 1 0 0 1 1
   32       2    0 1 0 0 0 0 0 1 0 0 1 0 0 0 0 1 1 0 0 0 1 0 1 1 1 0 1 1 1 0 0 0 0 0 0 1 0 0 1 0 0 1 1 0 0 1 0 1 1 1 1
    0       0    0 0 1 0 0 1 0 0 1 0 1 1 1 0 1 0 1 0 1 1 0 0 1 1 1 1 0 0 0 0 0 1 0 1 1 0 0 0 0 0 1 1 1 1 1 0 0 0 0 0 1
    1       1    1 1 0 1 0 0 1 0 1 1 1 1 1 0 0 1 1 0 0 1 1 0 0 1 1
   33       2    0 1 0 0 0 0 0 1 0 0 1 0 1 0 0 1 0 0 0 0 1 0 1 1 0 1 1 1 0 0 1 0 0 0 0 1 1 0 1 0 0 1 1 0 0 1 0 1 1 1 1
    0       0    0 0 0 0 0 1 0 1 1 1 1 1 1 0 1 0 1 1 0 1 0 0 1 0 1 1 0 0 0 0 0 0 0 1 0 0 0 0 0 0 1 1 1 1 1 0 0 0 0 1 1
    1       1    1 1 0 1 0 0 1 0 1 1 1 1 1 0 0 1 1 0 0 1 1 0 0 1 1
   34       2    0 1 0 0 0 0 0 1 0 0 1 0 1 0 0 1 1 0 0 0 1 0 1 1 0 1 1 1 0 0 1 0 0 0 1 1 0 0 1 0 0 1 1 0 0 1 0 1 1 1 1
    0       0    0 0 0 0 0 1 0 1 1 1 1 1 1 0 1 0 1 0 0 1 0 0 1 0 1 1 0 0 0 0 0 0 0 0 0 0 1 1 0 0 0 1 1 1 1 0 0 0 0 1 1
    1       1    1 1 0 1 0 0 1 0 1 1 1 1 1 0 0 1 1 0 0 1 1 0 0 1 1
   35       2    0 1 0 0 0 0 0 1 0 0 1 0 1 0 0 1 1 0 0 0 1 0 1 1 0 1 1 1 0 0 1 0 0 0 1 1 0 0 1 0 0 1 1 0 0 1 0 1 1 1 1
    0       0    0 0 0 0 0 1 0 1 1 1 1 1 1 0 1 0 1 0 0 1 0 0 1 0 1 1 0 0 0 0 0 0 0 0 0 0 1 1 0 0 0 1 1 1 1 0 0 0 0 1 1
    1       1    1 1 0 1 0 0 1 0 1 1 1 1 1 0 0 1 1 0 0 1 1 0 0 1 1
   36       2    0 1 0 0 0 0 0 1 0 0 1 0 1 0 0 1 1 0 0 0 1 0 1 1 0 1 1 1 0 0 1 0 0 0 1 1 0 0 1 0 0 1 1 0 0 1 0 1 1 1 1
    0       0    0 0 0 0 0 1 0 1 1 1 1 1 1 1 1 0 1 0 0 1 0 0 1 0 1 1 0 0 0 0 0 0 0 0 0 0 1 1 0 0 0 1 1 1 1 0 0 0 0 1 1
    1       1    1 1 0 1 0 0 1 0 1 1 1 1 1 0 0 1 1 0 0 1 1 0 0 1 1
   37       2    0 1 0 0 0 0 0 1 0 0 1 0 1 0 0 1 1 0 0 0 1 0 1 1 0 1 1 1 0 0 1 0 0 0 0 1 0 0 1 0 0 1 1 0 0 1 0 1 1 1 1
    0       0    0 0 0 0 0 1 0 0 0 1 1 1 1 0 1 0 0 1 0 1 0 0 1 0 1 1 0 0 0 0 0 1 0 1 1 0 0 1 0 0 0 1 1 1 1 0 0 0 0 1 1
    1       1    1 1 0 1 0 0 1 0 1 1 1 0 1 0 0 1 1 0 0 1 1 0 0 1 1
   38       2    0 1 0 0 0 0 0 1 0 0 1 0 1 0 0 1 1 0 0 0 1 0 1 1 0 1 1 1 0 0 1 0 0 0 1 1 0 0 1 0 0 1 1 0 0 1 0 1 1 1 1
    0       0    0 0 0 0 1 1 0 1 1 1 1 1 1 0 0 0 1 0 1 1 0 0 1 1 1 1 0 0 0 0 0 0 0 0 0 1 1 1 0 1 0 1 1 1 1 0 0 0 0 1 1
    1       1    1 1 0 1 0 0 1 0 1 1 0 1 1 0 0 0 1 0 0 1 1 0 0 1 1
   39       2    0 1 0 0 0 0 0 1 0 0 1 0 1 1 1 1 1 0 0 0 1 0 0 1 1 1 1 1 1 0 1 1 0 0 0 1 0 0 1 0 0 1 1 0 0 0 0 1 1 1 1
    0       0    0 0 1 0 0 1 0 0 1 1 1 0 1 0 1 0 0 0 1 1 1 1 0 1 1 1 0 0 0 0 0 1 0 1 0 0 1 0 0 1 1 1 1 1 1 0 0 0 0 0 1
    1       1    1 1 0 1 0 1 0 0 1 0 1 1 0 0 0 1 1 0 0 1 1 0 0 1 1
   40       2    0 1 0 0 0 0 0 1 0 0 1 0 1 1 1 1 1 0 0 0 1 0 0 1 1 1 1 1 1 0 1 1 0 0 0 0 0 0 1 0 0 1 1 0 0 0 0 1 1 1 1
    0       0    0 0 1 0 0 1 0 0 1 0 1 0 1 0 1 0 0 0 1 1 1 1 0 1 1 1 0 0 0 0 0 1 0 1 0 1 0 0 0 1 1 1 1 1 1 0 0 0 0 0 1
    1       1    1 1 0 1 0 1 0 0 1 0 1 1 0 0 0 1 1 0 0 1 1 0 0 1 1
   41       2    0 1 0 0 0 0 0 1 0 0 1 0 0 1 0 1 1 0 0 1 1 0 0 1 0 1 1 1 0 0 1 0 0 1 0 1 1 0 1 0 0 1 1 0 0 1 0 1 1 1 1
    0       0    0 0 0 0 0 1 1 1 1 0 1 1 1 0 0 0 0 1 1 1 1 0 1 0 1 1 0 0 0 0 0 1 0 0 1 0 1 0 0 1 1 1 1 1 1 0 0 0 0 0 1
    1       1    1 1 0 1 0 1 0 0 0 0 0 1 1 0 0 1 1 0 0 1 1 0 0 1 1
   42       2    0 1 0 0 0 0 0 1 0 0 1 0 0 1 1 1 0 0 0 1 1 0 1 1 0 1 1 1 0 0 1 1 0 1 1 1 1 0 1 0 0 1 1 0 0 1 0 1 1 1 1
    0       0    0 0 0 0 0 1 1 0 1 1 1 0 1 0 0 0 0 0 1 1 1 0 1 1 1 1 0 0 0 0 0 0 0 0 1 0 1 0 0 1 0 1 1 1 1 0 0 0 0 0 1
    1       1    1 1 0 1 0 1 0 0 0 0 1 1 1 0 1 1 1 0 0 1 1 0 0 1 1
   43       2    0 1 0 0 0 0 0 1 0 0 1 0 0 1 0 1 1 0 0 1 0 0 0 1 0 1 0 1 1 0 1 0 0 1 0 1 1 0 1 0 0 1 1 0 0 1 0 1 1 1 1
    0       0    0 0 0 0 0 0 1 0 1 0 1 0 1 0 0 0 0 0 1 1 0 0 1 1 1 1 0 0 0 0 0 1 0 0 1 0 1 0 0 0 1 1 1 1 1 0 0 0 0 0 1
    1       1    1 1 0 1 0 1 0 0 0 0 1 1 1 0 1 1 1 0 0 1 1 0 0 1 1
   44       2    0 1 0 0 0 0 0 1 0 0 1 0 0 1 1 1 0 0 0 1 1 0 1 1 0 1 1 1 0 0 1 1 0 1 1 1 1 0 1 0 0 1 1 0 0 1 0 1 1 1 1
    0       0    0 0 0 0 0 1 1 0 1 1 1 0 1 0 0 0 0 0 1 1 1 0 1 1 1 1 0 0 0 0 0 0 0 0 1 0 1 0 0 1 0 1 1 1 1 0 0 0 0 0 1
    1       1    1 1 0 1 0 1 0 0 0 0 1 1 1 0 1 1 1 1 0 1 1 0 0 1 1
   45       2    0 1 0 0 0 0 0 1 0 0 1 0 0 1 0 1 1 0 0 0 1 0 1 1 0 1 1 1 0 0 1 0 0 1 0 1 1 0 1 0 0 1 1 0 0 1 0 1 1 1 1
    0       0    0 0 0 0 0 1 0 1 0 1 1 1 1 0 0 0 0 1 1 1 1 0 1 0 1 1 0 0 0 0 0 1 0 0 1 0 0 0 0 1 1 1 1 1 1 0 0 0 0 0 1
    1       1    1 1 0 1 0 1 0 0 0 0 1 0 1 0 0 1 1 0 0 1 1 0 0 1 1
   46       2    0 1 0 0 0 0 0 1 0 0 1 0 1 0 0 1 0 1 0 0 1 0 1 1 0 1 1 1 0 0 1 1 0 1 0 1 1 0 1 0 0 1 1 0 0 1 0 1 1 1 1
    0       0    0 0 0 0 0 1 0 0 1 1 1 0 1 0 1 0 1 1 1 1 0 1 1 0 1 1 0 0 0 0 0 0 0 0 1 0 1 0 0 1 0 1 1 1 1 0 0 0 0 0 1
    1       1    1 1 0 1 0 1 0 0 0 1 1 1 1 0 0 1 1 0 0 1 1 0 0 1 1
   47       2    0 1 0 0 0 0 0 1 0 0 1 0 0 1 1 1 1 0 1 0 1 1 1 1 0 1 1 1 0 0 0 0 0 1 0 1 1 0 1 0 0 1 1 0 0 1 0 1 1 1 1
    0       0    0 0 0 0 0 1 0 0 0 1 1 1 1 0 1 0 0 1 1 1 1 0 1 0 1 1 0 0 0 0 0 1 0 1 1 0 0 0 0 0 1 1 1 1 1 0 0 0 0 0 1
    1       1    1 1 0 1 0 1 0 0 1 0 1 0 1 0 0 1 1 0 0 1 1 0 0 1 1
   48       2    0 1 0 0 0 0 0 1 0 0 1 0 0 1 0 1 1 0 0 1 1 0 0 1 0 1 1 1 0 0 1 0 0 1 0 1 1 0 1 0 0 1 1 0 0 1 0 1 1 1 1
    0       0    0 0 0 0 0 1 1 1 1 0 1 1 1 0 0 0 0 1 1 1 1 0 1 0 1 1 0 0 0 0 0 1 0 0 1 0 1 0 0 1 1 1 1 1 1 0 0 0 0 0 1
    1       1    1 1 0 1 0 1 0 0 0 0 0 1 1 0 0 1 1 0 0 1 1 0 0 1 1
   49       2    0 1 0 0 0 0 0 1 0 0 1 0 1 0 0 1 1 1 0 1 1 0 1 1 0 1 1 1 0 0 0 0 0 0 0 1 0 0 1 0 0 1 1 0 0 1 0 1 1 1 1
    0       0    0 0 0 0 0 1 0 0 1 1 1 0 1 0 1 0 1 0 1 1 0 0 1 1 1 1 0 0 0 0 0 1 0 0 1 0 0 0 0 0 1 1 1 1 1 0 0 0 0 0 1
    1       1    1 1 0 1 0 1 0 0 0 1 1 0 1 0 0 1 1 0 0 1 1 0 0 1 1
   50       2    0 1 0 0 0 0 0 1 0 0 1 0 0 0 1 1 0 1 0 1 1 0 1 1 0 1 1 1 0 0 0 1 0 0 1 1 1 0 1 0 0 1 1 0 0 1 0 1 1 1 1
    0       0    0 0 0 0 0 1 0 0 1 1 1 0 1 0 0 0 1 0 1 1 1 0 1 1 1 1 0 0 0 0 0 1 0 0 1 0 0 0 0 0 1 1 1 1 1 0 0 0 0 0 1
    1       1    1 1 0 1 0 1 0 0 0 1 1 1 1 0 1 1 1 0 0 1 1 0 0 1 1
   51       2    0 1 0 0 0 0 0 1 0 0 1 0 1 0 0 1 0 1 0 0 1 0 1 1 0 1 1 1 1 0 0 0 0 1 0 1 1 0 1 0 0 1 1 0 0 1 0 1 1 1 1
    0       0    0 0 0 0 0 1 0 0 1 1 1 0 1 0 1 0 1 1 1 1 1 1 1 0 1 1 0 0 0 0 0 0 0 1 1 0 1 1 1 1 0 1 1 1 1 0 0 0 0 0 1
    1       1    1 1 0 1 0 1 0 0 0 1 1 1 1 0 0 1 1 0 0 1 1 0 0 1 1
   52       2    0 1 0 0 0 0 0 1 0 0 1 0 0 0 1 1 1 1 0 1 1 0 1 1 1 0 1 1 0 0 0 0 0 1 0 0 0 0 1 0 0 1 1 1 0 1 1 1 1 1 1
    0       0    0 1 0 1 0 1 0 0 1 1 1 0 1 0 0 0 1 1 0 1 0 1 0 0 1 1 0 0 0 0 0 1 0 1 1 0 1 0 0 0 0 1 1 1 1 0 0 0 0 0 1
    1       1    1 1 0 0 0 1 1 1 0 1 1 1 1 0 0 1 0 0 0 1 1 0 0 1 1
   53       2    0 1 0 0 0 0 0 1 0 0 1 0 1 0 1 1 1 0 0 1 1 0 1 1 0 0 1 1 1 0 1 0 0 0 1 1 0 0 1 0 0 1 1 0 0 1 1 1 1 1 1
    0       0    0 1 1 0 0 1 0 1 0 0 1 1 1 0 1 0 1 1 1 1 0 0 1 1 1 1 0 0 0 0 0 0 0 1 1 1 0 0 0 1 0 1 1 1 1 0 0 0 0 0 1
    1       1    1 1 0 0 1 1 1 0 1 1 1 0 1 0 0 1 1 0 0 1 1 0 0 1 1
   54       2    0 1 0 0 0 0 0 1 0 0 1 0 0 0 1 1 1 0 1 0 1 0 1 1 1 0 1 1 1 0 1 0 0 0 1 1 1 0 1 0 0 1 1 1 0 1 1 1 1 1 1
    0       0    0 0 1 0 0 0 0 0 1 1 1 1 1 0 0 1 1 0 1 1 1 0 1 1 1 1 0 0 0 0 0 1 0 1 1 0 0 0 0 0 1 1 1 1 1 0 0 0 0 0 1
    1       1    1 1 0 0 1 0 1 0 0 1 0 1 1 0 0 1 1 0 0 1 1 0 0 1 1
   8800000.00000000        1618033.00000000       0.000000000000000E+000
  1.136363636363636E-007   6933969.00000000        6524285.00000000     
           1          51          27
   6174391.00000000        6477029.00000000        1791709.00000000     
   7992910.00000000        4663024.00000000        6059946.00000000     
   2946094.00000000        2895617.00000000        8119594.00000000     
   2890186.00000000        7282405.00000000        880084.000000000     
   2497489.00000000        5832363.00000000        2808641.00000000     
   8651898.00000000        4385614.00000000        5491249.00000000     
   3335422.00000000        8788190.00000000        900982.000000000     
   2941311.00000000        5863741.00000000        1661748.00000000     
   8709323.00000000        7152770.00000000        3557383.00000000     
   4102740.00000000        7128798.00000000        810586.000000000     
   2912528.00000000        5163584.00000000        2819394.00000000     
   1863051.00000000        4340318.00000000        3947705.00000000     
   861751.000000000        4769498.00000000        985014.000000000     
   1038776.00000000        8608766.00000000        3958130.00000000     
   1054753.00000000        5291400.00000000        1169003.00000000     
   355885.000000000        4171975.00000000        6895581.00000000     
   4256378.00000000        5738455.00000000        6933969.00000000     
   8329727.00000000        6071311.00000000        4375200.00000000     
   8514507.00000000     
   8800000.00000000        1618033.00000000       0.000000000000000E+000
  1.136363636363636E-007   327151.000000000        1667309.00000000     
           1          39          15
   2633491.00000000        3733493.00000000        1503636.00000000     
   3499422.00000000        6576274.00000000        2318588.00000000     
   4447655.00000000        8334213.00000000        6213089.00000000     
   3033756.00000000        1670578.00000000        7854165.00000000     
   5228112.00000000        3553364.00000000        2492449.00000000     
   4382673.00000000        7405867.00000000        3004083.00000000     
   6679806.00000000        4318375.00000000        7405736.00000000     
   5748752.00000000        7369246.00000000        724068.000000000     
   1319747.00000000        2680903.00000000        4385765.00000000     
   79558.0000000000        5343112.00000000        4578928.00000000     
   691792.000000000        8348353.00000000        295708.000000000     
   14551.0000000000        8330258.00000000        378946.000000000     
   7115390.00000000        3580707.00000000        327151.000000000     
   6183115.00000000        6022309.00000000        1107744.00000000     
   5500814.00000000        3427436.00000000        6957376.00000000     
   7492922.00000000        3026995.00000000        6372578.00000000     
   3353470.00000000        1860212.00000000        7297880.00000000     
   2808861.00000000        2310011.00000000        3152956.00000000     
   3200499.00000000     
   8800000.00000000        1618033.00000000       0.000000000000000E+000
  1.136363636363636E-007   3520775.00000000        2512077.00000000     
           1          45          21
   332540.000000000        7066711.00000000        15294.0000000000     
   2635438.00000000        4003635.00000000        1243422.00000000     
   1866297.00000000        6040369.00000000        3819141.00000000     
   1398898.00000000        2072867.00000000        6745180.00000000     
   1145475.00000000        1736439.00000000        7159442.00000000     
   7764756.00000000        3791513.00000000        146683.000000000     
   2674362.00000000        8158020.00000000        8539133.00000000     
   2148839.00000000        2011953.00000000        7679717.00000000     
   5033788.00000000        4446976.00000000        5115611.00000000     
   3070641.00000000        6764685.00000000        2772495.00000000     
   5455422.00000000        3384593.00000000        283390.000000000     
   8127866.00000000        2423427.00000000        3747064.00000000     
   2548942.00000000        6741161.00000000        5749451.00000000     
   3625352.00000000        2408082.00000000        1422868.00000000     
   6554698.00000000        883813.000000000        3520775.00000000     
   8269164.00000000        6380322.00000000        7272556.00000000     
   7291853.00000000        4606431.00000000        7444577.00000000     
   5440239.00000000        4241505.00000000        8740784.00000000     
   7822549.00000000     
