          49          54   1.00000000000000     
    1       2    0 1 0 1 0 0 0 1 0 1 0 0 1 1 0 0 1 0 0 0 0 1 0 0 1 1 0 1 1 1 1 1 1 0 0 1 1 1 1 1 1 1 1 0 0 0 0 1 0 1 0
    1       0    0 0 1 0 0 0 1 0 1 1 0 1 0 1 1 1 0 0 0 0 1 1 0 1 1 1 0 0 0 0 0 1 1 1 0 0 0 1 0 0 0 1 1 1 1 1 1 0 1 0 0
    1       0    0 0 0 1 1 0 0 0 0 0 0 1 1 1 1 0 0 1 0 1 1 0 0 1 1
    2       2    0 1 0 1 0 0 0 1 0 0 1 0 1 1 0 0 1 0 1 0 0 1 0 0 1 0 1 1 1 0 1 1 1 1 1 0 0 1 1 1 1 0 1 1 1 0 0 1 0 1 1
    1       1    0 0 0 0 0 0 1 0 0 0 0 0 1 1 0 0 1 1 1 0 1 1 1 1 1 1 0 0 0 0 0 1 1 0 0 0 1 0 0 1 0 1 0 1 1 1 0 1 1 0 0
    1       0    1 1 0 1 1 1 0 0 1 0 0 1 1 1 0 1 0 1 0 1 1 0 0 1 1
    3       2    0 1 0 1 0 0 0 1 0 0 1 0 0 1 0 0 1 0 1 0 0 1 0 0 1 0 1 1 1 0 1 1 1 0 1 0 0 1 1 1 1 0 1 1 1 0 0 1 0 1 1
    1       1    0 0 0 0 1 0 1 0 0 0 0 0 1 1 0 0 1 1 1 0 1 1 1 1 1 1 0 0 0 0 0 1 1 0 0 0 1 0 1 0 0 1 0 1 1 1 0 1 1 0 0
    1       0    1 1 0 1 1 1 0 0 1 0 0 1 1 1 0 1 0 1 0 1 1 0 0 1 1
    4       2    0 1 0 1 0 1 0 1 0 0 1 0 0 1 0 0 1 0 0 0 1 1 0 0 1 0 1 1 1 0 1 1 1 0 1 0 0 1 1 1 1 0 1 1 1 0 0 1 0 1 1
    1       1    0 0 0 0 0 0 1 1 0 0 0 0 1 1 0 0 1 1 1 0 1 1 1 1 1 1 0 0 0 0 0 0 1 0 0 1 0 0 0 0 0 1 0 1 1 1 0 1 1 0 0
    1       0    1 1 0 1 1 1 0 0 1 0 0 1 1 1 0 1 0 1 0 1 1 0 0 1 1
    5       2    0 1 0 1 0 1 0 1 0 0 1 0 1 1 0 0 1 0 1 0 0 1 0 0 1 0 1 1 0 0 1 1 1 1 1 0 0 1 1 1 1 0 1 1 1 0 0 1 0 1 1
    1       1    0 0 0 0 0 0 1 0 0 0 0 0 1 1 0 0 0 1 1 0 1 1 1 1 1 1 0 0 0 0 0 1 1 0 0 0 1 0 0 0 0 1 0 1 1 1 0 1 1 0 0
    1       0    1 1 0 1 1 1 0 0 1 0 0 1 0 1 0 1 0 1 0 1 1 0 0 1 1
    6       2    0 1 0 1 0 0 0 1 0 0 1 0 0 1 0 0 1 0 1 0 0 1 0 0 1 0 1 1 1 0 1 1 1 0 1 0 1 1 1 1 1 0 1 1 1 0 0 1 0 1 1
    1       1    0 0 0 0 1 0 1 0 0 0 0 0 1 1 0 0 1 1 1 0 1 1 1 1 1 1 0 0 0 0 0 1 1 0 0 0 0 0 0 0 0 1 0 1 1 1 0 1 1 0 0
    1       0    1 1 0 1 1 1 0 0 1 0 0 1 0 1 0 1 0 1 0 1 1 0 0 1 1
    7       2    0 1 0 1 0 0 0 1 0 0 1 0 0 0 0 0 1 0 1 0 0 1 0 0 1 0 1 1 1 0 1 1 1 1 1 0 0 1 1 1 1 0 1 1 1 0 0 1 0 1 1
    1       1    0 0 0 0 0 0 1 0 0 0 0 0 1 1 0 0 1 1 1 0 1 1 1 1 1 1 0 0 0 0 0 1 1 0 0 1 1 0 0 0 0 1 0 1 1 1 0 1 1 0 0
    1       0    1 1 0 1 1 1 0 0 1 0 0 1 1 1 0 1 0 1 0 1 1 0 0 1 1
    8       2    0 1 0 1 0 1 0 1 0 0 1 0 1 1 0 0 1 0 0 0 1 1 0 0 1 0 1 1 1 0 1 1 1 0 1 0 0 1 1 1 1 0 1 1 1 0 0 1 0 1 1
    1       1    0 0 0 0 0 0 1 1 0 0 0 0 1 1 0 0 1 1 1 0 1 1 1 1 1 1 0 0 0 0 0 0 1 0 0 0 0 0 0 1 0 1 0 1 1 1 0 1 1 0 0
    1       0    1 1 0 1 1 1 0 0 1 0 0 1 1 1 0 1 0 1 0 1 1 0 0 1 1
    9       2    0 1 0 1 0 1 0 1 0 0 1 0 0 1 0 0 1 0 1 0 0 1 0 1 1 0 0 1 1 0 1 1 1 1 1 1 1 1 1 1 1 0 1 1 1 0 0 1 0 1 1
    1       1    0 0 0 0 0 0 1 0 1 0 0 0 1 1 0 0 1 1 1 0 1 1 1 0 1 1 0 0 0 0 0 1 1 0 0 1 1 0 1 0 0 1 0 1 1 1 0 1 1 0 0
    1       0    1 1 0 1 1 1 0 0 1 0 0 1 1 1 0 1 0 1 0 1 1 0 0 1 1
   10       2    0 1 0 1 0 0 0 1 1 0 0 0 0 1 0 1 0 0 0 1 0 0 0 1 1 0 1 1 1 0 1 0 1 0 1 1 0 1 1 1 1 0 1 1 1 0 0 1 0 0 1
    1       1    0 1 0 0 0 0 0 1 0 1 1 0 0 1 0 0 1 1 0 0 1 1 0 1 1 1 0 0 0 0 0 0 1 0 0 1 0 0 1 1 0 1 1 1 1 1 0 1 0 0 1
    1       0    0 1 0 1 1 1 0 0 0 0 0 0 1 1 1 1 1 1 0 1 1 0 0 1 1
   11       2    0 1 0 1 0 0 0 1 1 0 0 0 0 1 0 1 0 0 0 1 0 0 0 1 1 0 1 1 1 0 1 0 1 1 1 1 0 1 1 1 1 0 1 1 1 0 0 1 0 0 1
    1       1    0 1 0 0 0 0 0 1 0 1 1 0 0 1 0 0 1 1 0 0 1 1 0 1 1 1 0 0 0 0 0 0 0 0 0 1 0 0 1 1 0 1 1 1 1 1 0 1 0 0 1
    1       0    0 1 0 1 1 1 0 0 0 0 0 0 1 1 1 1 1 1 0 1 1 0 0 1 1
   12       2    0 1 0 1 0 1 0 1 0 0 1 0 0 1 0 0 1 0 1 0 1 1 0 0 1 0 1 0 1 0 1 1 1 1 1 0 1 1 1 1 1 0 1 1 1 0 0 1 0 1 1
    1       1    0 1 0 0 0 0 1 0 0 0 0 0 1 1 0 0 0 1 1 0 1 1 1 1 1 1 0 0 0 0 0 1 0 0 0 1 1 0 1 1 0 1 0 1 1 1 0 1 0 0 0
    1       0    1 1 0 1 1 1 0 0 0 0 0 1 1 1 0 1 0 1 0 1 1 0 0 1 1
   13       2    0 1 0 1 0 0 0 1 0 0 1 0 1 1 0 0 1 0 1 0 0 1 0 0 1 0 1 0 1 0 1 1 1 1 1 0 1 1 1 1 1 0 1 1 1 0 0 1 0 1 1
    1       1    0 1 0 0 0 0 1 0 0 0 0 0 1 1 0 0 0 1 1 0 1 1 1 1 1 1 0 0 0 0 0 1 1 0 0 0 1 0 0 1 0 1 0 1 1 1 0 1 0 0 0
    1       0    1 1 0 1 1 1 0 0 0 0 0 1 0 1 0 1 0 1 0 1 1 0 0 1 1
   14       2    0 1 0 1 0 1 0 1 0 0 1 0 1 1 0 0 1 0 1 0 0 1 0 0 1 0 1 0 1 0 1 1 1 1 1 0 1 1 1 1 1 0 1 1 1 0 0 1 0 1 1
    1       1    0 1 0 0 0 0 1 1 0 0 0 0 1 1 0 0 1 1 1 0 1 1 1 1 1 1 0 0 0 0 0 1 1 0 0 0 1 0 0 0 0 1 0 1 1 1 0 1 0 0 0
    1       0    1 1 0 1 1 1 0 0 1 0 0 1 0 1 0 1 1 1 0 1 1 0 0 1 1
   15       2    0 1 0 1 0 1 0 1 0 0 1 0 0 1 0 0 0 0 0 0 1 0 0 0 1 0 1 1 1 0 1 1 1 0 1 1 0 1 1 1 1 0 1 1 1 0 0 1 0 1 1
    1       1    0 1 0 0 0 0 1 1 0 1 0 0 1 1 0 0 0 1 1 0 0 1 1 1 1 1 0 0 0 0 0 0 1 0 1 1 0 0 0 0 0 1 0 1 1 1 0 1 0 0 0
    1       0    1 1 0 1 1 1 0 0 1 0 0 1 1 1 0 1 0 1 0 1 1 0 0 1 1
   16       2    0 1 0 1 0 0 0 1 0 0 1 0 1 1 0 0 1 0 1 0 0 1 0 0 1 0 1 1 1 0 1 1 1 0 1 0 1 1 1 1 1 0 1 1 1 0 0 1 0 1 1
    1       1    0 1 0 0 1 0 1 0 0 0 0 0 1 1 0 0 1 1 1 0 1 1 1 1 1 1 0 0 0 0 0 1 1 0 0 0 1 0 0 1 0 1 0 1 1 1 0 1 0 0 0
    1       0    1 1 0 1 1 1 0 0 1 0 0 1 1 1 0 1 0 1 0 1 1 0 0 1 1
   17       2    0 1 0 1 0 0 0 1 0 0 1 0 1 1 0 1 1 0 0 1 0 0 0 0 1 0 1 0 1 0 1 1 1 0 1 1 1 1 1 1 1 0 1 1 1 0 0 1 0 1 1
    1       1    0 1 0 0 0 0 0 0 0 1 0 0 1 1 1 0 1 1 1 0 1 1 1 1 1 1 0 0 0 0 0 1 1 0 0 0 1 0 0 1 0 1 0 1 1 1 0 1 0 0 0
    1       0    1 1 0 1 1 1 0 0 1 0 0 1 1 1 0 1 0 1 0 1 1 0 0 1 1
   18       2    0 1 0 1 0 0 0 1 0 0 1 0 1 1 0 0 1 1 1 0 0 1 0 0 1 0 1 1 1 0 1 1 1 0 1 0 1 1 1 1 1 0 1 1 1 0 0 1 0 1 1
    1       1    0 1 0 0 1 0 1 0 0 0 0 0 1 1 0 0 1 1 1 0 1 1 1 1 1 1 0 0 0 0 0 1 1 0 0 0 1 0 0 1 0 1 0 1 1 1 0 1 0 0 0
    1       0    1 1 0 1 1 1 0 0 1 0 0 0 0 1 0 1 0 1 0 1 1 0 0 1 1
   19       2    0 1 0 1 0 0 0 1 0 0 1 0 1 1 0 0 1 0 1 0 0 1 0 0 1 1 1 1 1 0 1 1 1 0 1 0 1 1 1 1 1 0 1 1 1 0 0 1 0 1 1
    1       1    0 1 0 0 0 0 1 1 0 0 0 0 1 1 0 0 0 1 1 0 1 1 1 1 1 1 0 0 0 0 0 1 1 0 0 1 1 0 1 0 0 1 0 1 1 1 0 1 0 0 0
    1       0    1 1 0 1 1 1 0 0 1 0 0 1 1 1 0 1 0 1 0 1 1 0 0 1 1
   20       2    0 1 0 1 0 1 0 1 0 0 1 0 0 1 0 0 0 0 0 1 1 0 0 0 1 0 1 0 1 0 1 1 1 0 1 1 1 1 1 1 1 0 1 1 1 0 0 1 0 1 1
    1       1    0 1 0 0 0 0 1 1 0 0 0 0 1 1 0 1 0 1 1 0 1 1 1 1 1 1 0 0 0 0 0 1 1 0 1 1 0 0 0 0 0 1 0 1 1 1 0 1 0 0 0
    1       0    1 1 0 1 1 1 0 0 1 1 0 1 1 0 0 1 0 1 0 1 1 0 0 1 1
   21       2    0 1 0 1 0 0 0 1 0 0 1 0 0 1 0 0 1 0 0 0 1 1 0 0 1 0 1 1 1 0 1 1 1 0 1 0 1 1 1 1 1 0 1 1 1 0 0 1 0 1 1
    1       1    0 1 0 0 1 0 1 0 0 0 0 0 1 1 0 1 0 1 1 0 1 1 1 1 1 1 0 0 0 0 0 1 1 0 0 0 1 0 0 0 0 1 0 1 1 1 0 1 0 0 0
    1       0    1 1 0 1 1 1 0 0 1 0 0 1 1 1 0 1 0 1 0 1 1 0 0 1 1
   22       2    0 1 0 1 0 1 0 1 0 0 1 0 0 1 0 0 0 0 0 0 1 0 0 1 1 0 1 1 1 0 1 1 1 0 1 1 0 1 1 1 1 0 1 1 1 0 0 1 0 1 1
    1       1    0 1 0 0 0 0 1 1 0 1 0 0 1 1 0 0 0 1 1 0 0 1 1 1 1 1 0 0 0 0 0 0 1 0 1 1 1 1 0 0 0 1 0 1 1 1 0 1 0 0 0
    1       0    1 1 0 1 1 1 0 0 1 0 0 1 1 1 0 1 0 1 0 1 1 0 0 1 1
   23       2    0 1 0 1 0 1 0 1 0 0 1 0 1 1 0 1 1 0 0 0 1 0 0 1 1 0 1 1 1 1 1 1 1 1 1 1 1 1 1 1 1 0 1 1 1 0 0 1 0 1 1
    1       1    0 1 0 0 0 0 1 1 0 1 0 0 1 1 0 0 0 1 1 0 1 1 1 1 1 1 0 0 0 0 0 1 1 0 0 1 1 0 1 0 0 1 0 1 1 1 0 1 0 0 0
    1       0    1 1 0 1 1 1 0 0 1 0 0 1 1 1 0 1 0 1 0 1 1 0 0 1 1
   24       2    0 1 0 1 0 1 0 1 0 0 1 0 1 1 0 0 1 0 0 0 1 1 0 1 1 0 1 0 1 0 1 1 1 1 1 1 1 1 1 1 1 0 1 1 1 0 0 1 0 1 1
    1       1    0 1 0 0 0 0 1 0 0 0 0 0 1 1 0 0 0 0 1 0 1 1 1 1 1 1 0 0 0 0 0 1 1 0 0 0 1 0 0 1 1 1 0 1 1 1 0 1 0 0 0
    1       0    1 1 0 1 1 1 0 0 1 0 0 1 1 1 0 1 0 1 0 1 1 0 0 1 1
   25       2    0 1 0 1 0 1 0 1 0 0 1 0 0 1 0 1 1 0 0 1 0 0 0 1 1 0 0 0 1 0 1 1 1 0 1 1 1 1 1 1 1 0 1 1 1 0 0 1 0 1 1
    1       1    0 1 0 0 0 0 0 0 0 0 0 0 1 1 0 0 1 1 1 0 1 1 1 0 1 1 0 0 0 0 0 1 1 0 0 1 1 0 0 0 0 1 0 1 1 1 0 1 0 0 0
    1       0    1 1 0 1 1 1 0 0 1 0 1 1 1 1 0 1 0 1 0 1 1 0 0 1 1
   26       2    0 1 0 1 0 0 0 1 0 0 1 0 1 1 0 0 1 1 1 0 0 1 0 0 1 0 1 1 1 0 1 1 1 0 1 0 1 1 1 1 1 0 1 1 1 0 0 1 0 1 1
    1       1    0 1 0 0 1 0 1 0 0 0 0 0 1 1 0 0 1 1 1 0 1 1 1 1 1 1 0 0 0 0 0 1 1 0 0 1 1 0 1 0 0 1 0 1 1 1 0 1 0 0 0
    1       0    1 1 0 1 1 1 0 0 1 0 0 1 1 1 0 1 0 1 0 1 1 0 0 1 1
   27       2    0 1 0 1 0 1 0 1 0 0 1 0 1 1 0 0 1 0 1 1 0 1 0 0 1 0 1 0 1 0 1 1 1 0 1 1 1 1 1 1 1 0 1 1 1 0 0 1 0 1 1
    1       1    0 1 0 0 0 0 1 1 0 0 0 0 1 1 0 0 1 1 1 0 1 1 1 1 1 1 0 0 0 0 0 1 1 0 0 0 1 0 0 1 0 1 0 1 1 1 0 1 0 0 0
    1       0    1 1 0 1 1 1 0 0 1 0 0 1 0 1 0 1 0 1 0 1 1 0 0 1 1
   28       2    0 1 0 1 0 1 0 1 0 0 1 0 0 1 0 0 1 0 1 0 1 1 0 0 1 0 1 0 1 0 1 1 1 1 1 0 1 1 1 1 1 0 1 1 1 0 0 1 0 1 1
    1       1    0 1 0 0 0 0 0 0 0 0 0 0 0 1 0 0 0 1 0 0 1 1 0 1 1 1 0 0 0 0 0 1 0 0 0 1 0 0 1 0 0 1 0 1 1 1 0 1 0 0 0
    1       0    1 1 0 1 1 1 0 0 0 0 0 1 1 1 0 1 0 1 0 1 1 0 0 1 1
   29       2    0 1 0 1 0 1 0 1 0 0 1 0 0 1 0 0 1 0 1 0 0 0 1 0 1 0 0 0 1 0 1 1 1 0 1 1 1 1 1 1 1 0 1 1 1 0 0 1 0 1 1
    1       1    0 1 0 0 0 0 1 0 0 0 0 0 1 1 0 0 1 1 1 0 1 1 1 1 1 1 0 0 0 0 0 1 1 0 0 0 1 0 0 1 0 1 0 1 1 1 0 1 0 0 0
    1       0    1 1 0 1 1 1 0 0 1 1 0 1 1 1 0 1 0 1 0 1 1 0 0 1 1
   30       2    0 1 0 1 0 1 0 1 0 0 1 0 1 1 0 0 1 0 0 1 1 0 0 1 1 0 1 1 1 0 1 1 1 1 1 0 1 1 1 1 1 0 1 1 1 0 0 1 0 1 1
    1       1    0 1 0 0 0 0 1 1 0 0 0 0 1 1 0 0 0 1 1 0 1 0 1 1 1 1 0 0 0 0 0 1 1 0 0 1 1 0 1 0 0 1 0 1 1 1 0 1 0 0 0
    1       0    1 1 0 1 1 1 0 0 1 0 0 1 1 1 0 0 0 1 0 1 1 0 0 1 1
   31       2    0 1 0 1 0 1 0 1 0 0 1 0 0 1 0 1 0 0 0 0 1 0 0 0 1 0 1 1 1 0 1 1 1 0 1 1 1 1 1 1 1 0 1 1 1 0 0 1 0 1 1
    1       1    0 1 0 0 0 0 1 1 0 1 0 0 0 1 0 1 0 1 1 0 1 1 1 1 1 1 0 0 0 0 0 0 1 0 1 1 1 0 0 0 0 1 0 1 1 1 0 1 0 0 0
    1       0    1 1 0 1 1 1 0 0 1 0 0 1 1 1 0 1 0 1 0 1 1 0 0 1 1
   32       2    0 1 0 1 0 1 0 1 0 0 1 0 0 1 0 0 1 1 1 0 1 1 0 1 1 0 1 0 1 0 1 1 1 1 1 0 0 1 1 1 1 0 1 1 1 0 0 1 0 1 1
    1       1    0 1 0 0 0 0 1 0 0 0 0 0 1 1 0 0 0 1 1 0 0 1 1 1 1 1 0 0 0 0 0 1 0 0 0 1 1 1 1 0 0 1 0 1 1 1 0 1 0 0 0
    1       0    1 1 0 1 1 1 0 0 0 0 0 1 1 1 0 1 0 1 0 1 1 0 0 1 1
   33       2    0 1 0 1 0 0 0 1 0 0 1 0 1 1 0 0 1 1 1 0 0 1 0 0 1 0 1 1 1 0 1 1 1 0 1 0 1 1 1 1 1 0 1 1 1 0 0 1 0 1 1
    1       1    0 1 0 0 1 0 0 0 0 0 0 0 1 1 0 0 1 1 1 1 1 1 1 1 1 1 0 0 0 0 0 1 1 0 0 0 1 0 1 0 0 1 0 1 1 1 0 1 0 0 0
    1       0    1 1 0 1 1 1 0 0 1 0 0 1 1 1 0 1 0 1 0 1 1 0 0 1 1
   34       2    0 1 0 1 0 0 0 1 0 0 1 0 1 1 0 0 1 0 1 0 0 1 0 0 1 0 1 1 1 0 1 1 1 0 1 0 1 1 1 1 1 0 1 1 1 0 0 1 0 1 1
    1       1    0 1 0 0 1 0 1 0 0 0 0 0 1 1 0 0 1 1 1 0 1 1 1 1 1 1 0 0 0 0 0 1 1 0 0 0 1 0 0 0 0 1 0 1 1 1 0 1 0 0 0
    1       0    1 1 0 1 1 1 0 0 1 0 0 0 0 1 0 0 0 1 0 1 1 0 0 1 1
   35       2    0 1 0 1 0 1 0 1 0 0 1 0 0 1 0 0 0 1 1 0 0 1 0 1 1 0 1 1 1 0 1 1 1 1 1 0 0 1 1 1 1 0 1 1 1 0 0 1 0 1 1
    1       1    0 1 0 0 0 0 1 0 0 0 0 0 1 1 0 0 1 1 0 0 0 1 1 1 1 1 0 0 0 0 0 1 0 0 0 1 1 0 1 0 0 1 0 1 1 1 0 1 0 0 0
    1       0    1 1 0 1 1 1 0 0 0 0 0 1 1 1 0 1 0 1 0 1 1 0 0 1 1
   36       2    0 1 0 1 0 0 0 1 0 0 1 0 1 1 0 0 1 0 0 0 1 1 0 1 1 0 1 1 1 0 1 1 1 0 1 0 1 1 1 1 1 0 1 1 1 0 0 1 0 1 1
    1       1    0 1 0 0 0 0 1 1 0 0 0 0 1 1 0 0 0 1 1 0 1 1 1 1 1 1 0 0 0 0 0 1 1 0 0 1 1 0 0 0 0 1 0 1 1 1 0 1 0 0 0
    1       0    1 1 0 1 1 1 0 0 1 0 0 1 1 1 0 1 0 1 0 1 1 0 0 1 1
   37       2    0 1 0 1 0 0 0 1 0 0 1 0 0 1 0 0 1 0 1 0 0 1 0 0 1 1 1 1 1 0 1 1 1 0 1 0 1 1 1 1 1 0 1 1 1 0 0 1 0 1 1
    1       1    0 1 0 0 1 0 1 0 0 0 0 0 1 1 0 0 0 1 1 0 1 1 1 1 1 1 0 0 0 0 0 1 1 0 0 0 1 0 0 0 0 1 0 1 1 1 0 1 0 0 0
    1       0    1 1 0 1 1 1 0 0 1 0 0 1 1 1 0 1 0 1 0 1 1 0 0 1 1
   38       2    0 1 0 1 0 0 0 1 0 0 1 0 1 1 1 1 1 0 0 0 1 0 0 1 1 0 1 1 1 1 1 1 1 1 1 1 1 1 1 1 1 0 1 1 1 0 0 1 0 1 1
    1       1    0 1 0 0 0 0 1 1 0 1 0 0 1 1 0 0 0 1 1 0 1 1 1 1 1 1 0 0 0 0 0 1 1 0 0 1 1 0 1 0 0 1 0 1 1 1 0 1 0 0 0
    1       0    1 1 0 1 1 1 0 0 1 0 0 1 1 1 1 1 0 1 0 1 1 0 0 1 1
   39       2    0 1 0 1 0 1 0 1 0 0 1 0 0 1 0 1 0 0 0 1 0 1 0 0 1 0 0 0 1 0 1 1 1 0 1 0 1 1 1 1 1 0 1 1 1 0 0 1 0 1 1
    1       1    0 1 0 0 0 0 0 0 0 0 0 0 0 1 0 0 1 1 0 0 1 1 1 1 1 1 0 0 0 0 0 1 1 0 0 1 0 0 0 0 0 1 0 1 1 1 0 1 0 0 0
    1       0    1 1 0 1 1 1 0 0 1 0 1 1 1 1 0 1 0 1 0 1 1 0 0 1 1
   40       2    0 1 0 1 0 1 0 1 0 0 1 0 0 1 0 0 0 0 0 0 1 0 0 0 1 0 1 1 1 0 1 1 1 0 1 1 0 1 1 1 1 0 1 1 1 0 0 1 0 1 1
    1       1    0 1 0 0 0 0 1 1 0 1 0 0 1 1 0 0 0 1 1 0 0 1 1 1 1 1 0 0 0 0 0 0 1 0 1 1 0 0 0 0 0 1 0 1 1 1 0 1 0 0 0
    1       0    1 1 0 1 1 1 0 0 1 0 0 1 1 1 0 1 0 1 0 1 1 0 0 1 1
   41       2    0 1 0 1 0 1 0 1 0 0 1 0 1 1 0 0 1 0 0 0 0 1 0 0 1 0 1 0 1 0 1 1 1 0 1 0 1 1 1 1 1 0 1 1 1 0 0 1 0 1 1
    1       1    0 1 0 0 0 0 1 0 0 0 0 0 1 1 0 0 0 1 1 0 1 1 1 1 1 1 0 0 0 0 0 1 1 0 1 1 1 0 0 1 0 1 0 1 1 1 0 1 0 0 0
    1       0    1 1 0 1 1 1 0 0 0 1 0 1 1 0 0 1 0 1 0 1 1 0 0 1 1
   42       2    0 1 0 1 0 1 0 1 0 0 1 0 1 1 0 0 1 0 1 1 0 1 0 0 1 0 1 0 1 0 1 1 1 1 1 1 1 1 1 1 1 0 1 1 1 0 0 1 0 1 1
    1       1    0 1 0 0 0 0 1 1 0 0 0 0 1 1 0 0 1 1 1 0 1 1 1 1 1 1 0 0 0 0 0 1 1 0 0 0 1 0 0 1 0 1 0 1 1 1 0 1 0 0 0
    1       0    1 1 0 1 1 1 0 0 1 0 0 1 0 1 0 1 0 1 0 1 1 0 0 1 1
   43       2    0 1 0 1 0 0 0 1 0 0 1 0 1 1 0 0 1 0 1 0 0 1 0 0 1 0 1 0 1 0 1 1 1 1 1 0 1 1 1 1 1 0 1 1 1 0 0 1 0 1 1
    1       1    0 1 0 0 0 0 1 1 0 0 0 0 1 1 0 0 1 1 1 0 1 1 1 1 1 1 0 0 0 0 0 1 1 0 0 0 1 0 0 1 0 1 0 1 1 1 0 1 0 0 0
    1       0    1 1 0 1 1 1 0 0 1 0 0 1 0 1 0 1 0 0 0 1 1 0 0 1 1
   44       2    0 1 0 1 0 0 0 1 0 0 1 0 0 1 0 0 0 1 1 0 0 1 0 0 1 0 1 1 1 0 1 1 1 1 1 0 0 1 1 1 1 0 1 1 1 0 0 1 0 1 1
    1       1    0 1 0 0 0 0 1 0 0 0 0 0 1 1 0 0 1 1 1 0 0 1 1 1 1 1 0 0 0 0 0 1 0 0 0 1 1 0 0 0 0 1 0 1 1 1 0 1 0 0 0
    1       0    1 1 0 1 1 1 0 0 1 1 0 1 1 1 0 1 0 1 0 1 1 0 0 1 1
   45       2    0 1 0 1 0 1 0 1 0 0 1 0 1 1 0 0 1 0 0 0 1 1 0 1 1 0 1 1 1 0 1 1 1 0 1 0 1 1 1 1 1 0 1 1 1 0 0 1 0 1 1
    1       1    0 1 0 0 1 0 1 0 0 1 0 0 1 1 0 0 0 0 1 0 1 1 1 1 1 1 0 0 0 0 0 0 1 0 1 0 1 1 0 0 0 1 0 1 1 1 0 1 0 0 0
    1       0    1 1 0 1 1 1 0 0 1 0 0 1 1 1 0 1 0 1 0 1 1 0 0 1 1
   46       2    0 1 0 1 0 1 0 1 0 0 1 0 0 1 0 0 1 0 1 0 1 1 0 0 1 0 1 0 1 0 1 1 1 1 1 0 1 1 1 1 1 0 1 1 1 0 0 1 0 1 1
    1       1    0 1 0 0 0 0 1 0 0 0 0 0 0 1 0 0 0 1 1 0 1 1 1 1 1 1 0 0 0 0 0 1 0 0 0 1 1 0 1 0 0 1 0 1 1 1 0 1 0 0 0
    1       0    1 1 0 1 1 1 0 0 0 0 0 1 1 1 0 1 0 1 0 1 1 0 0 1 1
   47       2    0 1 0 1 0 0 0 1 0 0 1 0 1 1 0 0 1 0 0 1 1 1 0 0 1 0 1 0 1 0 1 1 1 0 1 1 1 1 1 1 1 0 1 1 1 0 0 1 0 1 1
    1       1    0 1 0 0 1 0 1 0 0 0 0 0 1 1 0 0 1 1 1 0 1 0 1 1 1 1 0 0 0 0 0 1 1 0 0 0 1 0 0 0 0 1 0 1 1 1 0 1 0 0 0
    1       0    1 1 0 1 1 1 0 0 1 0 0 1 1 1 0 0 0 1 0 1 1 0 0 1 1
   48       2    0 1 0 1 0 1 0 1 0 0 1 0 1 1 0 0 1 1 0 0 0 0 0 0 1 0 1 1 1 0 1 1 1 0 1 0 0 1 1 1 1 0 1 1 1 0 0 1 0 1 1
    1       1    0 1 0 0 0 0 1 1 0 0 0 0 1 1 0 0 1 1 1 0 1 1 1 1 1 1 0 0 0 0 0 1 1 1 0 1 1 0 0 1 0 1 0 1 1 1 0 1 0 0 0
    1       0    1 1 0 1 1 1 0 0 1 0 0 0 1 1 0 1 0 1 0 1 1 0 0 1 1
   49       2    0 1 0 1 0 1 0 1 0 1 0 0 1 1 0 0 0 1 0 1 0 0 0 0 1 1 1 1 1 1 1 1 1 0 1 1 0 1 1 1 1 1 1 1 0 0 0 1 0 0 1
    1       0    0 0 0 0 0 1 0 1 1 1 0 0 0 1 0 0 1 1 0 0 1 1 0 1 1 1 0 0 0 0 0 0 0 1 0 1 1 0 0 1 1 1 1 1 1 1 0 1 0 0 1
    1       0    0 1 0 1 1 1 0 1 0 0 0 0 1 1 1 1 1 1 0 1 1 0 0 1 1
   50       2    0 1 0 1 0 0 0 1 0 0 1 0 0 1 0 0 1 0 0 1 0 1 0 0 1 0 1 0 1 0 1 1 0 0 1 0 0 1 1 1 1 0 1 1 1 0 0 1 0 1 1
    1       1    0 0 0 0 0 0 1 1 0 0 0 0 1 1 0 0 1 1 1 0 1 1 1 1 1 1 0 0 0 0 0 1 1 0 0 0 1 0 0 1 0 1 0 1 1 1 0 1 1 0 1
    1       0    1 1 0 1 1 1 0 0 1 0 0 1 1 1 0 1 0 1 0 1 1 0 0 1 1
   51       2    0 1 0 1 0 0 0 1 0 0 1 0 0 1 0 0 1 0 1 1 0 1 0 0 1 0 1 1 1 0 1 1 1 0 1 1 1 1 1 1 1 0 1 1 1 0 0 1 0 1 1
    1       1    0 0 0 0 1 0 1 1 0 0 0 0 1 1 0 1 0 1 1 0 1 1 1 1 1 1 0 0 0 0 0 1 1 0 0 0 1 0 1 0 0 1 0 1 1 1 0 1 1 0 1
    1       0    1 1 0 1 1 1 0 0 1 0 0 1 1 1 0 0 0 1 0 1 1 0 0 1 1
   52       2    0 1 0 1 0 0 0 1 0 0 1 0 1 1 1 0 1 0 0 1 1 0 0 0 1 0 1 1 1 1 1 1 1 0 1 1 1 1 1 1 1 0 1 1 1 0 0 1 0 1 1
    1       1    0 0 0 0 1 0 1 1 0 1 0 0 1 1 0 0 0 1 1 0 1 1 1 1 1 1 0 0 0 0 0 1 1 0 0 0 1 0 1 0 0 1 0 1 1 1 0 1 1 0 1
    1       0    1 1 0 1 1 1 0 0 1 0 0 1 1 1 0 0 0 1 0 1 1 0 0 1 1
   53       2    0 1 0 1 0 1 0 1 0 0 1 0 0 1 0 0 1 0 1 0 0 1 0 0 1 0 1 1 1 0 1 1 1 1 1 1 1 1 1 1 1 0 1 1 1 0 0 1 0 1 1
    1       1    0 0 0 0 0 0 1 0 1 0 0 0 1 1 0 0 1 1 1 0 1 1 1 1 1 1 0 0 0 0 0 1 1 0 0 0 1 0 1 0 0 1 0 1 1 1 0 1 1 0 0
    1       0    1 1 0 1 1 1 0 1 1 0 0 1 1 1 0 1 0 0 0 1 1 0 0 1 1
   54       2    0 1 0 1 0 0 0 1 0 0 1 0 0 1 0 0 0 0 1 0 1 0 0 0 1 0 1 1 1 0 1 1 0 0 0 1 0 1 1 1 1 0 1 1 0 0 0 1 0 1 1
    1       1    0 1 0 0 0 0 1 1 0 0 0 0 1 1 0 0 1 1 1 0 0 1 1 1 1 1 0 0 0 0 0 1 1 0 1 0 0 0 1 0 0 1 0 1 1 1 0 1 1 0 0
    1       0    1 1 0 1 1 1 0 1 1 0 0 1 1 1 0 1 0 1 0 1 1 0 0 1 1
   8800000.00000000        1618033.00000000       0.000000000000000E+000
  1.136363636363636E-007   3480990.00000000        6524285.00000000     
           1          22          53
   7983977.00000000        6027730.00000000        5369170.00000000     
   3897991.00000000        2752972.00000000        6975555.00000000     
   350888.000000000        419422.000000000        6807862.00000000     
   4376226.00000000        2222377.00000000        782868.000000000     
   1140248.00000000        6332058.00000000        8423143.00000000     
   5623746.00000000        2405906.00000000        4314640.00000000     
   1818972.00000000        5887997.00000000        1972891.00000000     
   3480990.00000000        4530842.00000000        8066917.00000000     
   1643323.00000000        3450076.00000000        5996445.00000000     
   7138836.00000000        2765896.00000000        1846856.00000000     
   5000803.00000000        8343094.00000000        3197756.00000000     
   4005470.00000000        7290449.00000000        4057142.00000000     
   1575672.00000000        5944600.00000000        3021911.00000000     
   8006779.00000000        2658158.00000000        2852184.00000000     
   8498139.00000000        1793176.00000000        4320852.00000000     
   7863959.00000000        6631737.00000000        6174411.00000000     
   7188278.00000000        3857008.00000000        870238.000000000     
   6824243.00000000        705946.000000000        6287281.00000000     
   2588077.00000000     
   8800000.00000000        1618033.00000000       0.000000000000000E+000
  1.136363636363636E-007   7077518.00000000        1667309.00000000     
           1          28           4
   6264423.00000000        3509170.00000000        7729455.00000000     
   6534102.00000000        2240276.00000000        7631020.00000000     
   5153629.00000000        2171701.00000000        701637.000000000     
   6308376.00000000        4434559.00000000        3808259.00000000     
   6315665.00000000        3621035.00000000        8617278.00000000     
   5282363.00000000        4491859.00000000        3582437.00000000     
   8236532.00000000        6593119.00000000        7684951.00000000     
   6728023.00000000        788238.000000000        1923743.00000000     
   6416205.00000000        6435578.00000000        4193793.00000000     
   7077518.00000000        5933043.00000000        1902461.00000000     
   6563390.00000000        1712245.00000000        1681281.00000000     
   772523.000000000        7460538.00000000        4182929.00000000     
   3297170.00000000        1329023.00000000        7841285.00000000     
   5725800.00000000        4773996.00000000        5150004.00000000     
   8538675.00000000        3820528.00000000        5590759.00000000     
   3075520.00000000        8274453.00000000        3392455.00000000     
   2923131.00000000        6479260.00000000        8790950.00000000     
   1245770.00000000        6341181.00000000        2756435.00000000     
   6236482.00000000     
   8800000.00000000        1618033.00000000       0.000000000000000E+000
  1.136363636363636E-007   314470.000000000        2512077.00000000     
           1          28           4
   4734995.00000000        2481942.00000000        2778187.00000000     
   1045126.00000000        4272880.00000000        987992.000000000     
   3900777.00000000        3921697.00000000        8071389.00000000     
   7086284.00000000        3559531.00000000        362851.000000000     
   6737129.00000000        6314251.00000000        7300330.00000000     
   5133451.00000000        82031.0000000000        5977157.00000000     
   871716.000000000        5441203.00000000        7664235.00000000     
   7238871.00000000        2502686.00000000        4906495.00000000     
   31025.0000000000        3486938.00000000        3369009.00000000     
   314470.000000000        8493703.00000000        7341281.00000000     
   4511214.00000000        3375445.00000000        5952645.00000000     
   8421295.00000000        3915294.00000000        6238065.00000000     
   3667198.00000000        8676379.00000000        8141321.00000000     
   7522288.00000000        3273968.00000000        3751224.00000000     
   2908507.00000000        4978188.00000000        7294671.00000000     
   7150040.00000000        4557641.00000000        436687.000000000     
   1779019.00000000        328564.000000000        5716022.00000000     
   5651410.00000000        1886461.00000000        7085831.00000000     
   1390122.00000000     
