          71          54   1.00000000000000     
    1       2    0 1 0 1 0 1 0 1 1 0 0 0 0 0 0 0 1 0 0 0 0 0 0 1 1 0 1 1 1 0 1 1 1 0 1 1 0 1 1 1 1 0 1 1 1 0 1 1 0 0 1
    1       1    0 0 0 0 0 1 0 0 0 0 1 0 0 1 0 1 0 1 0 0 1 1 0 1 1 1 0 0 0 0 0 0 0 0 0 1 0 0 1 1 0 1 1 1 1 1 0 1 0 0 0
    1       0    0 1 0 1 0 1 1 0 1 0 0 0 1 1 0 0 0 1 0 1 1 0 0 1 1
    2       2    0 1 0 1 0 1 0 1 1 0 0 0 0 1 0 1 0 0 0 0 0 1 0 0 1 0 1 1 1 0 1 1 1 0 1 0 0 1 1 1 1 0 1 1 1 0 0 1 0 0 1
    1       1    0 0 0 0 0 0 0 0 0 0 1 0 1 1 0 0 0 1 0 0 1 1 1 1 1 1 0 0 0 0 0 0 0 0 0 1 0 0 1 1 0 1 1 1 1 1 0 1 0 0 0
    1       0    0 1 0 1 1 0 0 0 0 0 0 0 1 1 1 1 0 1 0 1 1 0 0 1 1
    3       2    0 1 0 1 0 1 0 1 1 0 0 0 0 1 0 1 0 0 0 0 1 1 0 0 1 0 1 1 1 0 1 1 1 0 1 0 0 1 1 1 1 0 1 1 1 0 0 1 0 0 1
    1       1    0 0 0 0 0 0 0 0 0 0 1 0 1 1 0 0 0 1 0 0 1 1 0 1 1 1 0 0 0 0 0 0 0 0 0 1 0 0 1 1 0 1 1 1 1 1 0 1 0 0 0
    1       0    0 1 0 1 1 0 0 0 1 0 0 0 1 1 1 1 0 1 0 1 1 0 0 1 1
    4       2    0 1 0 1 0 1 0 1 1 0 0 0 0 0 0 0 0 0 0 0 0 0 0 0 1 0 1 1 1 0 1 0 1 0 1 1 0 1 1 1 1 0 1 1 1 0 0 1 0 0 1
    1       1    0 0 0 0 0 0 0 0 0 0 1 0 1 1 0 0 0 1 0 0 1 1 0 1 1 1 0 0 0 0 0 0 0 0 0 1 0 0 1 1 0 1 1 1 1 1 0 1 0 0 0
    1       0    0 1 0 1 1 0 0 0 0 0 0 0 1 1 0 0 0 1 0 1 1 0 0 1 1
    5       2    0 1 0 1 0 1 0 1 1 0 0 0 0 1 1 1 0 0 0 1 0 0 0 0 1 0 1 1 1 0 1 1 0 0 1 1 0 1 1 1 1 0 1 1 1 0 0 1 0 0 1
    1       1    0 0 0 0 0 1 0 0 0 1 1 0 0 1 0 1 0 1 0 0 1 1 0 1 1 1 0 0 0 0 0 0 0 0 0 1 0 0 1 1 0 1 1 1 1 1 0 1 0 0 0
    1       0    0 1 0 1 1 0 0 0 1 0 0 0 1 1 1 1 0 1 0 1 1 0 0 1 1
    6       2    0 1 0 1 0 0 0 1 1 0 0 0 0 0 0 0 1 0 0 0 0 1 0 0 1 0 1 1 1 0 1 0 1 0 1 1 0 1 1 1 1 0 1 1 1 0 0 1 0 0 1
    1       1    0 0 0 0 0 0 0 0 0 1 1 0 0 1 0 0 1 1 0 0 1 1 1 1 1 1 0 0 0 0 0 0 0 0 0 1 0 0 1 1 0 1 1 1 1 1 0 1 0 0 0
    1       0    0 1 0 1 1 0 0 0 0 1 0 0 1 1 0 1 1 1 0 1 1 0 0 1 1
    7       2    0 1 0 1 0 0 0 1 1 0 0 0 0 0 0 1 1 1 0 1 0 1 1 0 1 0 1 1 1 0 1 0 1 0 1 0 0 1 1 1 1 0 1 1 1 0 0 1 0 0 1
    1       1    0 0 0 0 0 0 0 1 0 0 1 0 0 1 0 0 1 1 0 0 1 1 1 1 1 1 0 0 0 0 0 0 0 0 0 1 1 0 1 1 0 1 1 1 1 1 0 1 0 0 0
    1       0    0 1 0 1 1 0 0 0 0 0 0 1 1 1 1 1 0 1 0 1 1 0 0 1 1
    8       2    0 1 0 1 0 1 0 1 1 0 0 0 0 0 0 0 0 0 0 0 0 0 0 0 1 0 1 1 1 0 1 0 1 0 1 1 0 1 1 1 1 0 1 1 1 0 0 1 0 0 1
    1       1    0 0 0 0 0 0 0 0 0 0 1 0 1 1 0 0 0 1 0 0 1 1 0 1 1 1 0 0 0 0 0 0 0 0 0 1 0 0 1 1 0 1 1 1 1 1 0 1 0 0 0
    1       0    0 1 0 1 1 0 0 0 0 0 0 0 1 1 0 0 0 1 0 1 1 0 0 1 1
    9       2    0 1 0 1 0 1 0 1 1 0 0 0 0 0 0 0 1 0 0 1 0 0 0 0 1 0 1 1 1 0 1 0 1 0 1 1 0 1 1 1 1 0 1 1 1 0 0 1 0 0 1
    1       1    0 0 0 0 0 0 0 0 0 0 1 0 1 1 0 0 0 1 0 0 1 0 0 1 1 1 0 0 0 0 0 0 0 0 0 1 0 0 1 1 0 1 1 1 1 1 0 1 0 0 0
    1       0    0 1 0 1 1 0 0 0 0 0 0 0 1 1 0 1 0 1 0 1 1 0 0 1 1
   10       2    0 1 0 1 0 0 0 1 1 0 0 0 0 1 0 0 0 0 0 0 1 0 0 0 1 0 1 1 1 0 1 0 1 0 1 1 0 1 1 1 1 0 1 1 1 0 0 1 0 0 1
    1       1    0 0 0 0 0 0 0 1 0 1 1 0 1 1 0 0 0 0 0 0 1 1 0 1 1 1 0 0 0 0 0 0 1 0 0 1 0 0 1 1 0 1 1 1 1 1 0 1 0 0 0
    1       0    0 1 0 1 1 0 0 0 0 0 1 0 1 1 0 1 0 1 0 1 1 0 0 1 1
   11       2    0 1 0 1 0 1 0 1 1 0 0 0 0 1 0 1 0 0 0 0 0 1 0 1 1 0 1 1 1 0 1 1 0 1 1 1 0 1 1 1 1 0 1 1 1 0 0 1 0 0 1
    1       1    0 0 0 0 0 0 0 0 1 0 1 0 1 1 0 0 0 1 0 0 1 1 1 1 1 1 0 0 0 0 0 0 0 0 0 1 0 0 1 1 0 1 1 1 1 1 0 1 0 0 0
    1       0    0 1 0 1 1 0 0 0 0 0 0 0 1 0 1 1 0 1 0 1 1 0 0 1 1
   12       2    0 1 0 1 0 1 0 1 1 0 0 0 0 1 0 0 0 0 0 1 1 1 0 0 1 0 1 1 1 0 1 0 1 1 1 1 0 1 1 1 1 0 1 1 1 0 0 1 0 0 1
    1       1    0 0 0 0 0 0 0 1 0 0 1 0 1 1 0 0 1 1 0 0 1 1 0 1 1 1 0 0 0 0 0 0 0 0 0 1 0 0 1 1 0 1 1 1 1 1 0 1 0 0 0
    1       0    0 1 0 1 1 0 0 0 1 0 1 0 1 1 1 1 0 1 0 1 1 0 0 1 1
   13       2    0 1 0 1 0 0 0 1 1 0 0 0 0 1 1 0 0 0 0 0 1 0 0 0 1 0 1 1 1 0 1 0 1 1 1 1 0 1 1 1 1 0 1 1 1 0 0 1 0 0 1
    1       1    0 0 0 0 0 0 0 1 0 1 1 0 1 1 0 0 0 0 0 1 1 1 0 1 1 1 0 0 0 0 0 0 1 0 0 1 0 0 1 1 0 1 1 1 1 1 0 1 0 0 0
    1       0    0 1 0 1 1 0 0 0 0 0 0 0 1 1 1 1 0 1 0 1 1 0 0 1 1
   14       2    0 1 0 1 0 1 0 1 1 0 0 0 0 0 0 1 1 0 1 1 0 0 0 0 1 0 1 1 0 0 1 1 0 0 1 0 0 1 1 1 1 0 1 1 1 0 0 1 0 0 1
    1       1    0 0 0 0 0 1 0 0 0 1 1 0 0 1 0 1 0 1 0 0 1 1 0 0 1 1 0 0 0 0 0 0 0 0 0 1 0 0 1 1 0 1 1 1 1 1 0 1 0 0 0
    1       0    0 1 0 1 1 0 0 0 1 0 0 0 0 1 1 1 0 1 0 1 1 0 0 1 1
   15       2    0 1 0 1 0 0 0 1 1 0 0 0 0 0 0 1 1 0 0 1 0 1 0 1 1 0 1 1 0 0 1 0 1 1 1 0 0 1 1 1 1 0 1 1 1 0 0 1 0 0 1
    1       1    0 0 0 0 0 1 0 1 0 0 1 0 1 0 0 0 1 1 0 0 1 1 1 1 1 1 0 0 0 0 0 0 1 0 0 0 0 0 0 1 1 1 1 1 1 1 0 1 0 0 0
    1       0    0 1 0 1 1 0 0 0 1 1 0 0 1 1 1 0 0 1 0 1 1 0 0 1 1
   16       2    0 1 0 1 0 1 0 1 1 0 0 0 0 1 0 1 0 0 0 1 0 0 0 0 1 0 1 1 0 0 1 0 1 0 1 1 0 1 1 1 1 0 1 1 1 0 0 1 0 0 1
    1       1    0 0 0 0 0 0 0 0 0 0 1 0 1 1 0 0 0 1 0 0 1 1 1 1 1 1 0 0 0 0 0 0 0 0 0 1 0 0 1 0 0 1 1 1 1 1 0 1 0 0 0
    1       0    0 1 0 1 1 0 0 0 0 0 0 0 1 1 1 0 1 1 0 1 1 0 0 1 1
   17       2    0 1 0 1 0 1 0 1 1 0 0 0 1 1 0 1 0 0 0 0 0 1 0 0 1 0 0 1 1 0 1 1 1 0 1 1 0 1 1 1 1 0 1 1 1 0 0 1 0 0 1
    1       1    0 0 0 0 0 0 0 0 0 0 1 0 1 1 0 1 0 1 0 0 1 1 0 1 1 1 0 0 0 0 0 0 0 0 0 1 0 0 1 1 0 1 1 1 1 1 0 1 0 0 0
    1       0    0 1 0 1 1 0 0 0 1 0 0 0 1 1 1 1 0 1 0 1 1 0 0 1 1
   18       2    0 1 0 1 0 1 0 1 1 0 0 0 0 0 1 1 0 0 0 1 0 1 0 0 1 0 1 1 1 0 1 1 0 0 1 1 0 1 1 1 1 0 1 1 1 0 0 1 0 0 1
    1       1    0 0 0 0 0 0 0 0 0 1 1 0 0 1 0 0 1 1 0 0 1 1 0 1 1 1 0 0 0 0 0 0 0 0 0 1 0 0 1 1 0 1 1 1 1 1 0 1 0 0 0
    1       0    0 1 0 1 1 0 0 0 1 0 0 0 1 1 1 1 0 1 0 1 1 0 0 1 1
   19       2    0 1 0 1 0 0 0 1 1 0 0 0 0 0 0 1 1 0 0 1 0 0 0 0 1 0 1 1 1 0 1 0 1 0 1 1 0 1 1 1 1 0 1 1 1 0 0 1 0 0 1
    1       1    0 0 0 0 0 0 1 1 0 0 1 0 1 0 0 0 0 1 0 0 1 1 0 1 1 1 0 0 0 0 0 0 1 0 0 0 0 0 1 1 0 1 1 1 1 1 0 1 0 0 0
    1       0    0 1 0 1 1 0 0 0 1 0 0 0 1 1 0 1 0 1 0 1 1 0 0 1 1
   20       2    0 1 0 1 0 1 0 1 1 0 0 0 0 0 0 0 0 0 0 1 0 0 0 0 1 0 1 1 1 0 1 0 1 0 1 1 0 1 1 1 1 0 1 1 1 0 0 1 0 0 1
    1       1    0 0 0 0 0 0 0 0 0 0 1 0 1 1 0 0 0 1 0 0 1 0 0 1 1 1 0 0 0 0 0 0 0 0 0 1 0 0 1 1 0 1 1 1 1 1 0 1 0 0 0
    1       0    0 1 0 1 1 0 0 0 0 0 0 0 1 1 0 1 0 1 0 1 1 0 0 1 1
   21       2    0 1 0 1 0 0 0 1 1 0 0 0 0 1 0 1 0 0 0 1 0 0 0 1 1 0 1 1 1 0 1 0 1 0 1 1 0 1 1 1 1 0 1 1 1 0 0 1 0 0 1
    1       1    0 0 0 0 0 0 0 1 0 0 1 0 0 0 0 0 1 0 0 0 1 1 1 1 1 1 0 0 0 0 0 0 1 0 0 0 0 0 1 1 0 1 1 1 1 1 0 1 0 0 0
    1       0    0 1 0 1 1 0 0 0 0 0 1 0 1 1 0 1 0 1 0 1 1 0 0 1 1
   22       2    0 1 0 1 0 0 0 1 1 0 0 0 0 0 0 0 0 0 0 0 0 0 0 0 1 0 1 1 1 0 1 0 1 0 1 1 0 1 1 1 1 0 1 1 1 0 0 1 0 0 1
    1       1    0 0 0 0 0 0 0 0 0 1 1 0 1 1 0 0 1 1 0 0 1 0 0 1 1 1 0 0 0 0 0 0 0 1 0 1 0 0 1 1 0 1 1 1 1 1 0 1 0 0 0
    1       0    0 1 0 1 1 0 0 0 0 1 0 0 1 1 0 1 1 1 0 1 1 0 0 1 1
   23       2    0 1 0 1 0 0 0 1 1 0 0 0 0 1 0 0 1 0 0 0 1 1 0 0 1 0 1 1 1 0 1 0 1 0 1 1 0 1 1 1 1 0 1 1 1 0 0 1 0 0 1
    1       1    0 0 0 0 0 0 0 1 0 1 1 0 0 1 0 0 0 0 0 0 1 1 1 1 1 1 0 0 0 0 0 0 1 0 0 1 0 0 0 1 0 1 1 1 1 1 0 1 0 0 0
    1       0    0 1 0 1 1 0 0 0 0 1 1 0 1 1 0 1 0 1 0 1 1 0 0 1 1
   24       2    0 1 0 1 0 1 0 1 1 0 0 0 0 0 1 0 0 0 0 1 0 0 0 0 1 0 1 1 1 0 1 1 0 0 1 1 0 1 1 1 1 0 1 1 1 0 0 1 0 0 1
    1       1    0 0 0 0 0 0 0 0 0 0 1 0 1 1 0 0 1 1 0 0 1 1 0 1 1 1 0 0 0 0 0 0 0 0 0 1 0 0 1 1 0 1 1 1 1 1 0 1 0 0 0
    1       0    0 1 0 1 1 0 0 0 0 0 0 0 1 1 1 1 0 1 0 1 1 0 0 1 1
   25       2    0 1 0 1 0 0 0 1 1 0 0 0 0 1 0 1 0 0 0 1 0 0 0 1 1 0 1 1 1 0 1 0 1 0 1 0 0 1 1 1 1 0 1 1 1 0 0 1 0 0 1
    1       1    0 0 0 0 0 0 0 1 0 0 1 0 0 1 0 0 0 1 0 0 1 1 0 1 1 1 0 0 0 0 0 0 0 1 1 1 0 0 1 1 0 1 1 1 1 1 0 1 0 0 0
    1       0    0 1 0 1 1 0 0 0 0 0 0 0 1 1 0 0 0 1 0 1 1 0 0 1 1
   26       2    0 1 0 1 0 1 0 1 1 0 0 0 0 0 0 1 1 0 0 1 0 0 0 0 1 0 1 1 1 0 1 1 1 0 1 0 0 1 1 1 1 0 1 1 1 0 0 1 0 0 1
    1       1    0 0 0 0 0 1 0 0 0 1 1 0 0 1 0 1 0 1 0 0 1 1 0 1 1 1 0 0 0 0 0 0 0 0 0 1 0 0 1 0 1 1 1 1 1 1 0 1 0 0 0
    1       0    0 1 0 1 1 0 0 0 0 0 0 0 0 1 1 1 0 1 0 1 1 0 0 1 1
   27       2    0 1 0 1 0 1 0 1 1 0 0 0 0 0 0 1 1 0 0 0 0 1 0 0 1 0 1 1 0 0 1 1 1 0 1 0 0 1 1 1 1 0 1 1 1 0 0 1 0 0 1
    1       1    0 0 0 0 0 0 1 0 0 1 1 0 0 1 0 0 1 1 0 0 1 1 1 0 1 1 0 0 0 0 0 0 0 0 0 1 0 0 1 1 1 1 1 1 1 1 0 1 0 0 0
    1       0    0 1 0 1 1 0 0 0 1 0 0 0 0 1 1 1 0 1 0 1 1 0 0 1 1
   28       2    0 1 0 1 0 1 0 1 1 0 0 0 0 0 0 0 1 0 0 1 0 1 0 0 1 1 1 1 1 0 1 0 0 0 1 1 0 1 1 1 1 0 1 1 1 0 0 1 0 0 1
    1       1    0 0 0 0 0 0 0 0 0 0 1 0 1 0 0 1 1 1 0 0 1 1 0 1 1 1 0 0 0 0 0 0 1 0 0 0 0 1 1 1 0 1 1 1 1 1 0 1 0 0 0
    1       0    0 1 0 1 1 0 0 0 1 0 0 0 1 1 0 1 0 1 0 1 1 0 0 1 1
   29       2    0 1 0 1 0 1 0 1 1 0 0 0 0 1 0 1 1 0 0 1 0 0 0 0 1 0 1 1 1 0 1 1 0 0 1 0 0 1 1 1 1 0 1 1 1 0 0 1 0 0 1
    1       1    0 0 0 0 0 1 0 0 0 0 1 0 1 1 0 0 0 1 0 0 1 1 0 0 1 1 0 0 0 0 0 0 0 0 0 1 0 0 1 1 0 1 1 1 1 1 0 1 0 0 0
    1       0    0 1 0 1 1 0 0 0 1 0 0 0 0 1 0 1 0 1 0 1 1 0 0 1 1
   30       2    0 1 0 1 0 1 0 1 1 0 0 0 0 1 0 0 0 0 0 1 0 1 0 0 1 0 1 1 1 0 1 1 0 0 1 1 0 1 1 1 1 0 1 1 1 0 0 1 0 0 1
    1       1    0 0 0 0 0 0 0 0 0 1 1 0 1 1 0 0 1 1 0 0 1 1 1 1 1 1 0 0 0 0 0 0 0 0 0 1 0 0 1 1 0 1 1 1 1 1 0 1 0 0 0
    1       0    0 1 0 1 1 0 0 0 1 0 0 0 1 1 1 1 0 1 0 1 1 0 0 1 1
   31       2    0 1 0 1 0 0 0 1 1 0 0 0 0 0 0 1 0 0 0 1 0 0 0 1 1 0 1 1 1 0 1 0 1 1 1 0 0 1 1 1 1 0 1 1 1 0 0 1 0 0 1
    1       1    0 0 0 0 0 0 0 1 0 0 1 0 0 0 0 0 1 1 1 0 1 1 1 1 1 1 0 0 0 0 0 0 1 0 0 0 0 0 0 1 1 1 1 1 1 1 0 1 0 0 0
    1       0    0 1 0 1 1 0 0 0 0 0 0 0 1 1 1 0 0 1 0 1 1 0 0 1 1
   32       2    0 1 0 1 0 1 0 1 1 0 0 0 0 0 0 1 1 0 0 0 1 1 0 0 1 0 1 1 1 0 1 1 1 0 1 1 1 1 1 1 1 0 1 1 1 0 0 1 0 0 1
    1       1    0 0 0 0 0 0 0 0 0 1 1 0 0 1 0 0 1 1 0 0 1 1 1 1 1 1 0 0 0 0 0 0 0 0 0 1 0 0 0 1 0 1 1 1 1 1 0 1 0 0 0
    1       0    0 1 0 1 1 0 0 0 0 1 0 0 1 1 0 0 0 1 0 1 1 0 0 1 1
   33       2    0 1 0 1 0 1 0 1 1 0 0 0 0 0 0 1 1 0 0 1 0 0 0 0 0 0 1 1 1 0 1 0 1 0 1 1 0 1 1 1 1 0 1 1 1 0 0 1 0 0 1
    1       1    0 0 0 0 0 0 0 0 0 0 1 0 1 0 0 1 0 1 0 0 1 1 0 1 1 1 0 0 0 0 0 0 1 0 0 0 0 0 1 1 0 1 1 1 1 1 0 1 0 0 0
    1       0    0 1 0 1 1 0 0 0 0 0 0 0 1 1 0 1 0 1 0 1 1 0 0 1 1
   34       2    0 1 0 1 0 1 0 1 1 0 0 0 0 0 0 1 1 0 1 1 0 0 0 0 1 0 1 1 1 0 1 1 1 0 1 1 0 1 1 1 1 0 1 1 1 0 0 1 0 0 1
    1       1    0 0 0 0 0 0 0 0 0 0 1 1 0 1 0 0 0 1 0 0 1 1 0 1 1 1 0 0 0 0 0 0 0 0 0 1 0 0 1 1 0 1 1 1 1 1 0 1 0 0 0
    1       0    0 1 0 1 1 0 0 0 0 0 0 0 0 1 0 1 0 1 0 1 1 0 0 1 1
   35       2    0 1 0 1 0 0 0 1 1 0 0 0 0 0 0 0 0 0 0 1 1 0 0 1 1 0 1 1 0 0 1 0 0 0 1 0 0 1 1 1 1 0 1 1 1 0 0 1 0 0 1
    1       1    0 0 0 0 0 0 0 1 0 1 1 0 1 1 0 0 1 1 0 1 1 1 1 1 1 1 0 0 0 0 0 0 1 0 0 0 1 0 1 1 1 1 1 1 1 1 0 1 0 0 0
    1       0    0 1 0 1 1 0 0 0 0 0 0 0 1 1 0 0 0 1 0 1 1 0 0 1 1
   36       2    0 1 0 1 0 1 0 1 1 0 0 0 0 0 0 1 1 0 0 1 0 0 0 0 1 0 1 1 0 0 1 1 0 0 1 0 0 1 1 1 1 0 1 1 1 0 0 1 0 0 1
    1       1    0 0 0 0 0 0 0 0 0 1 1 0 0 1 0 0 0 0 0 0 1 1 1 0 1 1 0 0 0 0 0 0 0 0 0 1 0 0 1 1 0 1 1 1 1 1 0 1 0 0 0
    1       0    0 1 0 1 1 0 0 0 1 0 0 0 0 1 1 1 0 0 0 1 1 0 0 1 1
   37       2    0 1 0 1 0 1 0 1 1 0 0 0 0 1 1 1 0 0 0 1 0 1 0 0 1 0 1 1 0 0 1 0 1 0 1 1 0 1 1 1 1 0 1 1 1 0 0 1 0 0 1
    1       1    0 0 0 0 0 0 0 0 0 1 1 0 0 1 0 0 1 1 0 0 1 1 0 1 1 1 0 0 0 0 0 0 0 0 0 1 0 0 1 0 0 1 1 1 1 1 0 1 0 0 0
    1       0    0 1 0 1 1 0 0 0 0 0 0 0 1 1 1 0 0 1 0 1 1 0 0 1 1
   38       2    0 1 0 1 0 0 0 1 1 0 0 0 0 0 1 1 0 0 0 1 0 1 0 0 1 0 1 1 0 0 1 1 0 0 1 1 0 1 1 1 1 0 1 1 1 0 0 1 0 0 1
    1       1    0 0 0 0 0 1 0 0 0 1 1 0 1 0 0 1 0 1 0 0 1 1 0 1 1 1 0 0 0 0 0 0 0 0 0 1 0 0 1 1 1 1 1 1 1 1 0 1 0 0 0
    1       0    0 1 0 1 1 0 0 0 1 0 0 0 1 1 1 1 0 1 0 1 1 0 0 1 1
   39       2    0 1 0 1 0 1 0 1 1 0 0 0 0 1 0 1 0 0 0 0 0 1 1 0 1 0 0 1 1 0 1 1 1 0 1 1 0 1 1 1 1 0 1 1 1 0 0 1 0 0 1
    1       1    0 0 0 0 0 0 0 1 0 0 1 0 1 1 0 0 0 1 0 0 1 1 0 1 1 1 0 0 0 0 0 0 0 0 0 1 0 0 1 1 0 1 1 1 1 1 0 1 0 0 0
    1       0    0 1 0 1 1 0 0 0 0 0 0 0 1 1 1 1 0 1 0 1 1 0 0 1 1
   40       2    0 1 0 1 0 1 0 1 1 0 0 0 0 1 1 1 0 0 0 1 0 1 0 0 1 0 1 1 1 0 1 0 1 0 1 1 0 1 1 1 1 0 1 1 1 0 0 1 0 0 1
    1       1    0 0 0 0 0 0 1 0 0 1 1 0 1 1 0 1 0 1 0 0 1 1 0 1 1 1 0 0 0 0 0 0 0 0 0 1 0 0 1 1 0 1 1 1 1 1 0 1 0 0 0
    1       0    0 1 0 1 1 0 0 0 1 0 0 0 1 1 0 1 0 1 0 1 1 0 0 1 1
   41       2    0 1 0 1 0 1 0 1 1 0 0 0 0 0 1 1 0 0 0 1 0 1 0 0 1 0 1 1 1 0 1 1 1 0 1 1 0 1 1 1 1 0 1 1 1 0 0 1 0 0 1
    1       1    0 0 0 0 0 1 0 0 0 1 1 0 0 1 0 1 0 1 0 0 1 1 0 1 1 1 0 0 0 0 0 0 0 0 0 1 0 0 1 0 1 1 1 1 1 1 0 1 0 0 0
    1       0    0 1 0 1 1 0 0 0 1 0 0 0 1 1 1 1 0 1 0 1 1 0 0 1 1
   42       2    0 1 0 1 0 1 0 1 1 0 0 0 1 0 0 1 1 0 0 1 0 0 0 0 1 0 1 1 0 0 1 0 0 0 1 0 0 1 1 1 1 0 1 1 1 0 0 1 0 0 1
    1       1    0 0 0 0 0 1 0 1 0 1 1 1 1 1 0 0 1 1 0 1 1 1 1 1 1 1 0 0 0 0 0 0 0 0 0 0 1 0 1 1 0 1 1 1 1 1 0 1 0 0 0
    1       0    0 1 0 1 1 0 0 0 0 0 0 0 0 1 0 1 0 1 0 1 1 0 0 1 1
   43       2    0 1 0 1 0 0 0 1 1 0 0 0 0 0 0 0 0 0 1 1 1 0 0 1 1 0 1 1 1 0 1 1 1 0 1 1 0 1 1 1 1 0 1 1 1 0 0 1 0 0 1
    1       1    0 0 0 0 0 0 0 0 0 0 1 0 0 1 0 0 0 1 0 0 1 1 0 1 1 1 0 0 0 0 0 0 1 0 0 1 0 0 1 1 1 1 1 1 1 1 0 1 0 0 0
    1       0    0 1 0 1 1 0 0 0 0 0 0 0 1 1 0 0 0 1 0 1 1 0 0 1 1
   44       2    0 1 0 1 0 1 0 1 1 0 0 0 0 0 0 1 1 0 0 0 1 1 0 0 1 0 1 1 1 0 0 0 1 0 1 1 1 1 1 1 1 0 1 1 1 0 0 1 0 0 1
    1       1    0 0 0 0 0 0 0 1 0 1 1 0 0 1 0 0 1 0 0 0 1 1 1 1 1 1 0 0 0 0 0 0 1 0 0 1 0 0 0 1 0 1 1 1 1 1 0 1 0 0 0
    1       0    0 1 0 1 1 0 0 0 0 1 0 0 1 1 0 1 0 1 0 1 1 0 0 1 1
   45       2    0 1 0 1 0 1 0 1 1 0 0 0 0 1 0 0 1 0 0 1 0 1 0 0 1 0 1 1 1 0 1 0 1 0 1 1 0 1 1 1 1 0 1 1 1 0 0 1 0 0 1
    1       1    0 0 0 0 0 0 0 0 0 1 1 0 0 1 0 0 1 1 0 0 1 1 0 1 1 1 0 0 0 0 0 0 0 0 0 1 0 0 1 1 0 1 1 1 1 1 0 1 0 0 0
    1       0    0 1 0 1 1 0 0 0 0 0 0 0 1 1 1 1 0 1 0 1 1 0 0 1 1
   46       2    0 1 0 1 0 1 0 1 1 0 0 0 0 1 0 0 1 0 1 0 0 0 0 0 1 0 1 1 1 0 1 1 1 1 1 1 0 1 1 1 1 0 1 1 1 0 0 1 0 0 1
    1       1    0 0 0 0 0 0 0 0 0 0 1 1 0 1 0 0 0 0 0 0 1 1 0 1 1 1 0 0 0 0 0 0 0 0 0 1 0 0 1 1 0 1 1 1 1 1 0 1 0 0 0
    1       0    0 1 0 1 1 0 0 0 0 0 1 0 0 1 0 1 0 1 0 1 1 0 0 1 1
   47       2    0 1 0 1 0 1 0 1 1 0 0 0 0 1 1 1 0 0 0 0 0 1 0 0 1 0 1 1 1 0 1 1 0 0 1 0 0 1 1 1 1 0 1 1 1 0 0 1 0 0 1
    1       1    0 0 0 0 0 0 0 0 0 0 1 0 1 1 0 0 1 1 0 0 1 1 1 1 1 1 0 0 0 0 0 0 0 0 0 1 0 0 1 1 0 1 1 1 1 1 0 1 0 0 0
    1       0    0 1 0 1 1 0 0 0 0 0 0 0 1 1 1 1 0 1 0 1 1 0 0 1 1
   48       2    0 1 0 1 0 1 0 1 1 0 0 0 0 0 0 1 0 0 0 1 0 1 0 0 1 0 1 1 1 0 1 1 1 0 1 1 0 1 1 1 1 0 1 1 1 0 0 1 0 0 1
    1       1    0 0 0 0 0 0 0 0 0 1 1 0 0 1 0 0 0 1 0 0 1 1 1 1 1 1 0 0 0 0 0 0 0 0 0 1 0 0 1 1 0 1 1 1 1 1 0 1 0 0 0
    1       0    0 1 0 1 1 0 0 0 1 0 0 0 1 1 1 1 0 1 0 1 1 0 0 1 1
   49       2    0 1 0 1 0 1 0 1 1 0 0 0 0 0 1 0 0 0 0 0 0 1 0 0 1 0 1 1 1 0 1 1 1 0 1 1 0 1 1 1 1 0 1 1 1 0 0 1 0 0 1
    1       1    0 0 0 0 0 0 0 1 0 0 1 0 0 1 0 0 1 1 0 0 1 1 1 1 1 1 0 0 0 0 0 0 0 0 0 1 0 0 0 1 0 1 1 1 1 1 0 1 0 0 0
    1       0    0 1 0 1 1 0 0 0 0 1 0 0 1 1 0 1 0 1 0 1 1 0 0 1 1
   50       2    0 1 0 1 0 1 0 1 1 0 0 0 0 1 0 1 0 0 0 0 0 1 0 1 1 0 0 1 1 0 1 1 0 1 1 1 0 1 1 1 1 0 1 1 1 0 0 1 0 0 1
    1       1    0 0 0 0 0 0 0 0 1 0 1 0 1 1 0 1 0 1 0 0 1 1 1 1 1 1 0 0 0 0 0 0 0 1 0 1 0 0 1 1 0 1 1 1 1 1 0 1 0 0 0
    1       0    0 1 0 1 1 0 0 0 0 0 0 0 1 0 1 1 0 1 0 1 1 0 0 1 1
   51       2    0 1 0 1 0 1 0 1 1 0 0 0 0 0 0 1 1 0 1 1 0 0 0 0 1 0 1 1 1 0 1 1 1 0 1 1 0 1 1 1 1 0 1 1 1 0 0 1 0 0 1
    1       1    0 0 0 0 0 0 0 0 0 0 1 1 0 0 0 0 0 1 0 0 1 1 1 1 1 1 0 0 0 0 0 0 0 0 0 1 0 0 1 0 0 1 1 1 1 1 0 1 0 0 0
    1       0    0 1 0 1 1 0 0 0 0 0 0 0 0 1 1 0 0 1 0 1 1 0 0 1 1
   52       2    0 1 0 1 0 1 0 1 1 0 0 0 0 0 1 1 0 0 0 1 0 1 0 0 1 1 1 1 0 0 1 0 0 0 1 1 0 1 1 1 1 0 1 1 1 0 0 1 0 0 1
    1       1    0 0 0 0 0 0 0 0 0 1 1 0 1 0 0 1 1 1 0 0 1 1 0 1 1 1 0 0 0 0 0 0 0 0 0 0 0 1 1 1 1 1 1 1 1 1 0 1 0 0 0
    1       0    0 1 0 1 1 0 0 1 1 0 0 0 1 1 1 1 0 1 0 1 1 0 0 1 1
   53       2    0 1 0 1 0 0 0 1 1 0 0 0 0 0 0 1 1 0 0 1 0 1 0 1 1 0 1 1 0 0 1 0 0 0 1 0 0 1 1 1 1 0 1 1 1 0 0 1 0 0 1
    1       1    0 0 0 0 0 0 0 1 0 0 1 0 1 0 0 0 1 1 0 0 1 1 1 1 1 1 0 0 0 0 0 0 1 0 0 0 1 0 1 1 1 1 1 1 1 1 0 1 0 0 0
    1       0    0 1 0 1 1 0 0 1 1 0 0 0 1 1 0 1 0 1 0 1 1 0 0 1 1
   54       2    0 1 0 1 0 0 0 1 1 0 0 0 0 0 0 0 1 0 1 1 0 1 0 0 1 0 1 1 0 1 1 0 1 0 1 0 0 1 1 1 1 0 1 1 1 0 0 1 0 0 1
    1       1    0 0 0 0 0 0 0 1 0 1 1 0 1 0 0 0 0 1 0 0 1 1 1 0 1 1 0 0 0 0 0 0 0 0 0 1 1 0 1 1 1 1 1 1 1 1 0 1 0 0 0
    1       0    0 1 0 1 1 0 0 1 1 1 0 0 0 1 1 1 0 1 0 1 1 0 0 1 1
   8800000.00000000        1618033.00000000       0.000000000000000E+000
  1.136363636363636E-007   3480990.00000000        6524285.00000000     
           1          22          53
   7983977.00000000        6027730.00000000        5369170.00000000     
   3897991.00000000        2752972.00000000        6975555.00000000     
   350888.000000000        419422.000000000        6807862.00000000     
   4376226.00000000        2222377.00000000        782868.000000000     
   1140248.00000000        6332058.00000000        8423143.00000000     
   5623746.00000000        2405906.00000000        4314640.00000000     
   1818972.00000000        5887997.00000000        1972891.00000000     
   3480990.00000000        4530842.00000000        8066917.00000000     
   1643323.00000000        3450076.00000000        5996445.00000000     
   7138836.00000000        2765896.00000000        1846856.00000000     
   5000803.00000000        8343094.00000000        3197756.00000000     
   4005470.00000000        7290449.00000000        4057142.00000000     
   1575672.00000000        5944600.00000000        3021911.00000000     
   8006779.00000000        2658158.00000000        2852184.00000000     
   8498139.00000000        1793176.00000000        4320852.00000000     
   7863959.00000000        6631737.00000000        6174411.00000000     
   7188278.00000000        3857008.00000000        870238.000000000     
   6824243.00000000        705946.000000000        6287281.00000000     
   2588077.00000000     
   8800000.00000000        1618033.00000000       0.000000000000000E+000
  1.136363636363636E-007   6846003.00000000        1667309.00000000     
           1          55          31
   7679226.00000000        1850435.00000000        8471906.00000000     
   1598623.00000000        8111821.00000000        793959.000000000     
   4432110.00000000        1552222.00000000        2344071.00000000     
   1234749.00000000        7507326.00000000        2856397.00000000     
   6346141.00000000        2665039.00000000        7028523.00000000     
   2976974.00000000        6317329.00000000        8533866.00000000     
   7056931.00000000        6996939.00000000        8514320.00000000     
   8797894.00000000        4656574.00000000        4343901.00000000     
   20428.0000000000        3590948.00000000        3622163.00000000     
   7897305.00000000        7101346.00000000        847509.000000000     
   5761503.00000000        7304409.00000000        4049503.00000000     
   583862.000000000        265126.000000000        8481183.00000000     
   835140.000000000        712597.000000000        3765282.00000000     
   3294401.00000000        48914.0000000000        4665676.00000000     
   2158449.00000000        8210690.00000000        5580688.00000000     
   6919128.00000000        7826866.00000000        4343652.00000000     
   8002743.00000000        2293690.00000000        8173166.00000000     
   3647062.00000000        2833279.00000000        30952.0000000000     
   6846003.00000000     
   8800000.00000000        1618033.00000000       0.000000000000000E+000
  1.136363636363636E-007   1525367.00000000        2512077.00000000     
           1           6          37
   2265323.00000000        1296602.00000000        3020986.00000000     
   8682139.00000000        1200032.00000000        1525367.00000000     
   3011788.00000000        7129531.00000000        8606084.00000000     
   5990305.00000000        6922640.00000000        1965812.00000000     
   7888347.00000000        8419001.00000000        7743360.00000000     
   4178606.00000000        4635467.00000000        117609.000000000     
   3823250.00000000        3314130.00000000        2635682.00000000     
   7242533.00000000        2387935.00000000        7063913.00000000     
   497431.000000000        8791391.00000000        4404242.00000000     
   5950309.00000000        4671311.00000000        4904050.00000000     
   8662042.00000000        7801038.00000000        4685737.00000000     
   2832269.00000000        4520210.00000000        5823827.00000000     
   6775470.00000000        6038405.00000000        6809356.00000000     
   5188456.00000000        8576028.00000000        6945969.00000000     
   3960514.00000000        893031.000000000        6854786.00000000     
   1994180.00000000        467155.000000000        615715.000000000     
   4015902.00000000        6008238.00000000        679061.000000000     
   12756.0000000000        3864817.00000000        259432.000000000     
   7010390.00000000     
