          55          54   1.00000000000000     
    1       2    0 1 0 1 0 1 0 1 0 1 1 1 1 1 0 0 0 0 1 1 1 0 0 0 0 0 1 1 1 0 0 1 0 0 1 1 1 1 1 1 1 1 1 1 0 0 1 1 1 1 0
    1       1    1 0 0 0 0 0 0 0 1 0 1 0 0 1 1 0 0 0 1 1 0 1 0 0 1 1 0 0 0 0 0 0 1 0 1 1 0 0 0 0 0 1 0 1 1 1 1 0 0 1 0
    1       0    0 0 0 0 0 1 1 0 1 1 0 1 0 0 0 0 1 1 0 1 1 0 0 1 1
    2       2    0 1 0 1 0 1 0 1 0 1 1 1 1 1 0 0 0 0 1 1 1 0 0 0 0 0 1 1 1 0 0 1 0 0 1 1 1 1 1 1 1 1 1 1 0 0 1 1 1 1 0
    1       1    1 0 0 0 0 0 0 0 1 0 1 0 0 1 1 0 0 0 1 1 0 1 0 0 1 1 0 0 0 0 0 0 1 0 1 1 0 0 0 0 0 1 0 1 1 1 1 0 0 1 0
    1       0    0 0 0 0 0 1 1 0 1 1 0 1 0 0 0 0 1 1 0 1 1 0 0 1 1
    3       2    0 1 0 1 0 1 0 1 0 1 1 1 1 1 0 0 0 0 1 1 1 0 0 0 0 0 1 1 1 0 0 1 0 0 1 1 1 1 1 1 1 1 1 1 0 0 1 1 1 1 0
    1       1    1 0 0 0 0 0 0 0 1 0 1 0 0 1 1 0 0 0 1 1 0 1 0 0 1 1 0 0 0 0 0 0 1 0 1 1 0 0 0 0 0 1 0 1 1 1 1 0 0 1 0
    1       0    0 0 0 0 0 1 1 0 1 1 0 1 0 0 0 0 1 1 0 1 1 0 0 1 1
    4       2    0 1 0 1 0 1 0 1 0 1 1 1 1 1 0 0 0 0 1 1 1 0 0 0 0 0 1 1 1 0 0 1 0 0 1 1 1 1 1 1 1 1 1 1 0 0 1 1 1 1 0
    1       1    1 0 0 0 0 0 0 0 1 0 1 0 0 1 1 0 0 0 1 1 0 1 0 0 1 1 0 0 0 0 0 0 1 0 1 1 0 0 0 0 0 1 0 1 1 1 1 0 0 1 0
    1       0    0 0 0 0 0 1 1 0 1 1 0 1 0 0 0 0 1 1 0 1 1 0 0 1 1
    5       2    0 1 0 1 0 1 0 1 0 1 1 1 1 1 0 0 0 0 1 1 1 0 0 0 0 0 1 1 1 0 0 1 0 0 1 1 1 1 1 1 1 1 1 1 0 0 1 1 1 1 0
    1       1    1 0 0 0 0 0 0 0 1 0 1 0 0 1 1 0 0 0 1 1 0 1 0 0 1 1 0 0 0 0 0 0 1 0 1 1 0 0 0 0 0 1 0 1 1 1 1 0 0 1 0
    1       0    0 0 0 0 0 1 1 0 1 1 0 1 0 0 0 0 1 1 0 1 1 0 0 1 1
    6       2    0 1 0 1 0 1 0 1 0 1 1 1 1 1 0 0 0 0 1 1 1 0 0 0 0 0 1 1 1 0 0 1 0 0 1 1 1 1 1 1 1 1 1 1 0 0 1 1 1 1 0
    1       1    1 0 0 0 0 0 0 0 1 0 1 0 0 1 1 0 0 0 1 1 0 1 0 0 1 1 0 0 0 0 0 0 1 0 1 1 0 0 0 0 0 1 0 1 1 1 1 0 0 1 0
    1       0    0 0 0 0 0 1 1 0 1 1 0 1 0 0 0 0 1 1 0 1 1 0 0 1 1
    7       2    0 1 0 1 0 1 0 1 0 1 1 1 1 1 0 0 0 0 1 1 1 0 0 0 0 0 1 1 1 0 0 1 0 0 1 1 1 1 1 1 1 1 1 1 0 0 1 1 1 1 0
    1       1    1 0 0 0 0 0 0 0 1 0 1 0 0 1 1 0 1 0 1 1 0 1 0 0 1 1 0 0 0 0 0 0 1 0 1 1 0 0 0 0 0 1 0 1 1 1 1 0 0 1 0
    1       0    0 0 0 0 0 1 1 0 1 1 0 1 0 0 0 0 1 1 0 1 1 0 0 1 1
    8       2    0 1 0 1 0 1 0 1 0 1 1 1 1 1 0 0 0 0 1 1 1 0 0 0 0 0 1 1 1 0 0 1 0 0 1 1 1 1 1 1 1 1 1 1 0 0 1 1 1 1 0
    1       1    1 0 0 0 0 0 0 0 1 0 1 0 0 1 1 0 0 0 1 1 0 1 0 0 1 1 0 0 0 0 0 0 1 0 1 1 0 0 0 0 0 1 0 1 1 1 1 0 0 1 0
    1       0    0 0 0 0 0 1 1 0 1 1 0 1 0 0 0 0 1 1 0 1 1 0 0 1 1
    9       2    0 1 0 1 0 1 0 1 0 1 1 1 1 1 0 0 0 0 1 1 1 0 0 0 0 0 1 1 1 0 0 1 0 0 1 1 1 1 1 1 1 1 1 1 0 0 1 1 1 1 0
    1       1    1 0 0 0 0 0 0 0 1 0 1 0 0 1 1 0 0 0 1 1 0 1 0 0 1 1 0 0 0 0 0 0 1 0 1 1 0 0 0 0 0 1 0 1 1 1 1 0 0 1 0
    1       0    0 0 0 0 0 1 1 0 1 1 0 1 0 0 0 0 1 1 0 1 1 0 0 1 1
   10       2    0 1 0 1 0 1 0 1 0 1 1 1 1 1 0 0 0 0 1 1 1 0 0 0 0 0 1 1 1 0 0 1 0 0 1 1 1 1 1 1 1 1 1 1 0 0 1 1 1 1 0
    1       1    1 0 0 0 0 0 0 0 1 0 1 0 0 1 1 0 0 0 1 1 0 1 0 0 1 1 0 0 0 0 0 0 1 0 1 1 0 0 0 0 0 1 0 1 1 1 1 0 0 1 0
    1       0    0 0 0 0 0 1 1 0 1 1 0 1 0 0 0 0 1 1 0 1 1 0 0 1 1
   11       2    0 1 0 1 0 1 0 1 0 1 1 1 1 1 0 0 0 0 1 1 1 0 0 0 0 0 1 1 1 0 0 1 0 0 1 1 1 1 1 1 1 1 1 1 0 0 1 1 1 1 0
    1       1    1 0 0 0 0 0 0 0 1 0 1 0 0 1 1 0 0 0 1 1 0 1 0 0 1 1 0 0 0 0 0 0 1 0 1 1 0 0 0 0 0 1 0 1 1 1 1 0 0 1 0
    1       0    0 0 0 0 0 1 1 0 1 0 0 1 0 0 0 0 1 1 0 1 1 0 0 1 1
   12       2    0 1 0 1 0 1 0 1 0 1 1 1 1 1 0 0 0 0 1 1 1 0 0 0 0 0 1 1 1 0 0 1 0 0 1 1 1 1 1 1 1 1 1 1 0 0 1 1 1 1 0
    1       1    1 0 0 0 0 0 0 0 1 0 1 0 0 1 1 0 0 0 1 1 0 0 0 0 1 1 0 0 0 0 0 0 1 0 1 0 0 0 0 1 0 1 0 1 1 1 1 0 0 1 0
    1       0    0 0 0 0 0 1 1 0 1 1 0 1 0 0 0 0 1 1 0 1 1 0 0 1 1
   13       2    0 1 0 1 0 1 0 1 0 1 1 1 1 1 0 0 0 0 1 1 1 0 0 0 0 0 1 1 1 0 0 1 0 0 1 1 1 1 1 1 1 1 1 1 0 0 1 1 1 1 0
    1       1    1 0 0 0 0 0 0 0 1 0 1 0 1 1 1 0 0 0 1 1 0 1 0 0 1 1 0 0 0 0 0 0 1 0 1 1 0 0 0 0 0 1 0 1 1 1 1 0 0 1 0
    1       0    0 0 0 0 0 1 1 0 1 1 0 1 0 0 0 0 1 1 0 1 1 0 0 1 1
   14       2    0 1 0 1 0 1 0 1 0 1 1 1 1 0 0 0 0 0 1 1 1 0 0 0 0 0 1 1 1 0 0 1 0 0 1 1 1 1 1 1 1 1 1 1 0 0 1 1 1 1 0
    1       1    1 0 0 0 0 0 0 0 1 0 1 0 0 1 1 0 0 0 1 1 0 1 0 0 1 1 0 0 0 0 0 0 1 0 1 1 0 0 0 0 0 1 0 1 1 1 1 0 0 1 0
    1       0    0 0 0 0 0 1 1 0 1 1 0 1 0 0 0 0 1 1 0 1 1 0 0 1 1
   15       2    0 1 0 1 0 1 0 1 0 1 1 1 1 1 0 0 0 0 1 1 1 0 0 0 0 1 1 1 1 0 0 1 0 0 1 1 1 1 1 1 1 1 1 1 0 0 1 1 1 1 0
    1       1    1 0 0 0 0 0 0 0 1 0 1 0 1 1 1 0 0 0 1 1 0 1 0 0 1 1 0 0 0 0 0 0 1 0 1 1 0 0 0 0 0 1 0 1 1 1 1 0 0 1 0
    1       0    0 0 0 0 0 1 1 0 1 1 0 1 0 0 1 0 1 1 0 1 1 0 0 1 1
   16       2    0 1 0 1 0 1 0 1 0 1 1 1 1 1 0 0 0 0 1 1 1 1 0 0 0 0 1 1 1 0 0 1 0 0 1 1 1 1 1 1 1 1 1 1 0 0 1 1 1 1 0
    1       1    1 0 0 0 0 0 0 0 1 0 1 0 0 1 1 0 0 0 1 1 0 1 0 0 1 1 0 0 0 0 0 0 1 0 1 1 0 0 1 0 0 1 0 1 1 1 1 0 0 1 0
    1       0    0 0 0 0 0 1 1 0 1 1 0 1 0 0 0 1 1 1 0 1 1 0 0 1 1
   17       2    0 1 0 1 0 1 0 1 0 1 1 1 1 0 0 0 0 0 1 1 1 0 0 0 0 0 1 1 1 0 0 1 0 0 1 1 1 1 1 1 1 1 1 1 0 0 1 1 1 1 0
    1       1    1 0 0 0 0 0 0 0 1 0 1 0 0 1 1 0 1 0 1 1 0 1 0 0 1 1 0 0 0 0 0 0 1 0 1 1 0 0 0 0 0 1 0 1 1 1 1 0 0 1 0
    1       0    0 0 0 0 0 1 1 0 1 1 0 1 0 0 0 0 1 1 0 1 1 0 0 1 1
   18       2    0 1 0 1 0 1 0 1 0 1 1 1 1 1 0 0 0 0 1 1 1 0 0 0 0 0 1 1 1 0 0 1 0 0 1 1 1 1 1 1 1 1 1 1 0 0 1 1 1 1 0
    1       1    1 0 0 0 0 0 0 0 1 0 1 0 0 1 1 0 0 0 1 1 0 1 0 0 1 1 0 0 0 0 0 0 1 0 1 1 0 0 0 0 0 1 0 1 1 1 1 0 0 1 0
    1       0    0 0 0 0 0 1 1 0 1 1 0 1 0 0 0 0 1 1 0 1 1 0 0 1 1
   19       2    0 1 0 1 0 1 0 1 0 1 1 1 1 1 0 0 0 0 1 1 1 0 0 0 0 0 1 1 1 0 0 1 0 0 1 1 1 1 1 1 1 1 1 1 0 0 1 1 1 1 0
    1       1    1 0 0 0 0 0 0 0 0 0 1 0 0 1 1 0 0 0 1 1 0 1 0 0 1 1 0 0 0 0 0 0 1 0 1 1 0 0 0 0 0 1 0 1 1 1 1 0 0 1 0
    1       0    0 0 0 0 0 1 1 0 1 1 0 1 0 0 0 0 1 1 0 1 1 0 0 1 1
   20       2    0 1 0 1 0 1 0 1 0 1 1 1 1 1 0 0 0 0 1 0 1 0 0 1 0 0 1 1 1 0 0 1 0 0 1 1 1 1 1 1 1 1 1 1 0 0 1 1 1 1 0
    1       1    1 0 0 0 1 0 0 0 1 0 1 0 0 1 1 0 0 0 1 1 0 1 0 0 1 1 0 0 0 0 0 0 1 0 1 1 0 0 0 0 0 1 0 1 1 1 1 0 0 1 0
    1       0    0 0 0 0 0 1 1 0 1 1 0 1 0 0 0 0 1 1 0 1 1 0 0 1 1
   21       2    0 1 0 1 0 1 0 1 0 1 1 1 1 1 0 0 0 0 1 1 1 1 0 0 0 0 1 1 1 0 0 1 0 0 1 1 1 1 1 1 1 1 1 1 0 0 1 1 1 1 0
    1       1    1 0 0 0 0 0 0 0 1 0 1 0 0 1 1 0 0 0 1 1 0 1 0 0 1 1 0 0 0 0 0 0 1 0 1 1 0 0 0 0 0 1 0 1 1 1 1 0 0 1 0
    1       0    0 0 0 0 0 1 1 0 1 1 0 1 0 0 0 0 1 1 0 1 1 0 0 1 1
   22       2    0 1 0 1 0 1 0 1 0 1 1 1 1 0 0 0 0 0 1 1 1 0 0 0 0 0 1 1 1 0 0 1 0 0 1 1 1 1 1 1 1 1 1 1 0 0 1 1 1 1 0
    1       1    1 0 0 0 0 0 0 0 0 0 1 0 0 1 1 0 0 0 1 1 0 1 0 0 1 1 0 0 0 0 0 0 1 0 1 1 0 0 0 0 0 1 0 1 1 1 1 0 0 1 0
    1       0    0 0 0 0 0 1 1 0 1 1 0 1 0 0 0 0 1 1 0 1 1 0 0 1 1
   23       2    0 1 0 1 0 1 0 1 0 1 1 1 1 1 0 0 0 0 1 1 1 0 0 0 0 0 1 1 1 0 0 1 0 0 1 1 1 1 1 1 1 1 1 1 0 0 1 1 1 1 0
    1       1    1 0 0 0 0 0 0 0 1 0 1 0 0 1 1 0 1 0 1 0 0 1 0 0 1 1 0 0 0 0 0 0 1 0 1 1 0 0 0 0 0 1 0 1 1 1 1 0 0 1 0
    1       0    0 0 0 0 0 1 1 0 1 1 0 1 0 0 0 0 1 1 0 1 1 0 0 1 1
   24       2    0 1 0 1 0 1 0 1 0 1 1 1 1 1 0 0 0 0 1 1 1 0 0 0 0 0 1 1 1 0 0 1 0 0 1 1 1 1 1 1 1 1 1 1 0 0 1 1 1 1 0
    1       1    1 0 0 0 0 0 1 0 1 0 1 0 0 1 1 0 1 0 1 1 0 1 0 0 1 1 0 0 0 0 0 0 1 0 1 1 0 0 0 0 0 1 0 1 1 1 1 0 0 1 0
    1       0    0 0 0 0 0 1 1 0 1 1 0 1 0 0 0 0 1 1 0 1 1 0 0 1 1
   25       2    0 1 0 1 0 1 0 1 0 1 1 1 1 1 0 0 0 0 1 1 1 0 0 0 0 0 1 1 1 0 0 1 0 0 1 1 1 1 1 1 1 1 1 1 0 0 1 1 1 1 0
    1       1    1 0 0 0 0 0 0 0 1 0 1 0 0 1 1 0 0 0 1 1 0 1 0 0 1 1 0 0 0 0 0 0 1 0 1 1 0 0 0 0 0 1 0 1 1 1 1 0 0 1 0
    1       0    0 0 0 0 0 1 1 0 1 1 0 1 0 0 0 0 1 1 0 1 1 0 0 1 1
   26       2    0 1 0 1 0 1 0 1 0 1 1 1 1 1 0 0 0 0 1 1 1 0 0 0 0 0 1 1 1 0 0 1 0 0 1 0 1 1 1 1 1 1 1 1 0 0 1 1 1 1 0
    1       1    1 0 0 0 0 0 0 0 1 0 1 0 0 1 1 0 0 0 1 1 0 1 0 0 1 1 0 0 0 0 0 0 1 0 1 1 0 0 0 0 0 1 0 1 1 1 1 0 0 1 0
    1       0    0 0 0 0 0 1 1 0 1 1 0 1 0 0 0 0 1 1 0 1 1 0 0 1 1
   27       2    0 1 0 1 0 1 0 1 0 1 1 1 1 1 0 0 0 0 1 0 1 0 0 0 0 0 1 1 1 0 0 1 0 0 1 1 1 1 1 1 1 1 1 1 0 0 1 1 1 1 0
    1       1    1 0 0 0 0 0 0 0 1 0 1 0 0 1 1 0 0 0 1 1 0 1 0 0 1 1 0 0 0 0 0 0 1 0 1 1 0 0 0 0 0 1 0 1 1 1 1 0 0 1 0
    1       0    0 0 0 0 0 1 1 0 1 1 0 1 0 0 0 0 1 1 0 1 1 0 0 1 1
   28       2    0 1 0 1 0 0 0 1 0 1 1 1 1 1 0 0 0 0 1 1 1 0 0 0 0 0 1 1 0 0 0 1 0 0 1 1 1 1 1 1 1 1 1 1 0 0 1 1 1 1 0
    1       1    1 0 0 0 0 0 0 0 1 0 1 0 0 1 1 0 1 0 1 1 0 1 0 0 1 1 0 0 0 0 0 0 1 0 1 1 0 0 0 0 0 1 0 1 1 1 1 0 0 1 0
    1       0    0 0 0 0 0 1 1 0 1 1 0 1 0 0 0 0 1 1 0 1 1 0 0 1 1
   29       2    0 1 0 1 0 1 0 1 0 1 1 1 1 1 0 0 0 0 1 1 1 0 0 0 0 0 1 1 1 0 0 1 0 0 1 1 1 1 1 1 1 1 1 1 0 0 1 1 1 1 0
    1       1    1 0 0 0 0 0 0 0 1 0 1 0 0 1 1 0 1 0 1 1 0 1 0 0 1 1 0 0 0 0 0 0 1 0 1 1 0 0 0 0 0 1 0 1 1 1 1 0 0 1 0
    1       0    0 0 0 0 0 1 1 0 1 1 0 1 0 0 0 0 1 1 0 1 1 0 0 1 1
   30       2    0 1 0 1 0 1 0 1 0 1 1 1 1 0 0 0 0 0 1 1 1 0 0 0 0 0 1 1 1 0 0 1 0 0 1 1 1 1 1 1 1 1 1 1 0 0 1 1 1 1 0
    1       1    1 0 0 0 0 0 0 0 1 0 1 0 0 1 0 0 1 0 1 1 0 1 0 0 1 1 0 0 0 0 0 0 1 0 1 1 0 0 0 0 0 1 0 1 1 1 1 0 0 1 0
    1       0    0 0 0 0 0 1 1 0 1 1 0 1 0 0 0 0 1 1 0 1 1 0 0 1 1
   31       2    0 1 0 1 0 1 0 1 0 1 1 1 1 1 0 0 0 0 1 1 0 0 0 1 0 0 1 1 1 0 0 1 0 0 1 1 1 1 1 1 1 1 1 1 0 0 1 1 1 1 0
    1       1    1 0 0 0 0 0 0 0 1 0 1 0 0 1 1 0 0 0 1 1 0 1 0 0 1 1 0 0 0 0 0 0 1 0 1 1 0 0 0 0 0 1 0 1 1 1 1 0 0 1 0
    1       0    0 0 0 0 0 1 1 0 1 1 0 1 0 0 0 1 1 1 0 1 1 0 0 1 1
   32       2    0 1 0 1 0 1 0 1 0 1 1 1 1 1 0 0 0 0 1 1 1 0 0 1 0 0 1 1 1 0 0 1 0 0 1 1 1 1 1 1 1 1 1 1 0 0 1 1 1 1 0
    1       1    1 0 0 0 1 0 0 0 1 0 1 0 0 1 1 0 0 0 1 1 0 1 0 0 1 1 0 0 0 0 0 0 1 0 1 1 0 0 0 0 0 1 0 1 1 1 1 0 0 1 0
    1       0    0 0 0 0 0 1 1 0 1 1 0 1 0 0 0 0 1 1 0 1 1 0 0 1 1
   33       2    0 1 0 1 0 1 0 1 0 1 1 1 1 1 0 0 1 0 0 1 1 0 0 0 0 0 1 1 1 0 0 1 0 0 1 1 1 1 1 1 1 1 1 1 0 0 1 1 1 1 0
    1       1    1 0 0 0 0 0 0 0 1 0 1 0 0 1 1 0 0 0 1 1 0 1 0 0 1 1 0 0 0 0 0 0 1 0 1 1 0 0 0 0 0 1 0 1 1 1 1 0 0 1 0
    1       0    0 0 0 0 0 1 1 0 1 1 1 1 0 0 0 0 1 1 0 1 1 0 0 1 1
   34       2    0 1 0 1 0 1 0 1 0 1 1 1 1 1 0 0 0 0 1 1 0 0 0 0 0 0 1 1 1 1 0 1 0 0 1 1 1 1 1 1 1 1 1 1 0 0 1 1 1 1 0
    1       1    1 0 0 0 0 0 0 0 1 0 0 0 0 1 1 0 0 0 1 1 0 1 0 0 1 1 0 0 0 0 0 0 1 0 1 1 0 0 0 0 0 1 0 1 1 1 1 0 0 1 0
    1       0    0 0 0 0 0 1 1 0 1 1 0 1 0 0 0 0 1 1 0 1 1 0 0 1 1
   35       2    0 1 0 1 0 1 0 1 0 1 1 1 1 1 0 0 0 0 1 1 1 0 0 1 0 0 1 1 1 0 0 1 0 0 1 1 1 1 1 1 1 1 1 1 0 0 1 1 1 1 0
    1       1    1 0 0 0 0 1 0 0 1 0 1 0 0 1 1 0 0 0 1 1 0 1 0 0 1 1 0 0 0 0 0 0 1 0 1 1 0 0 0 0 0 1 0 1 1 1 1 0 0 1 0
    1       0    0 0 0 0 0 1 1 0 1 1 0 1 0 0 0 1 1 1 0 1 1 0 0 1 1
   36       2    0 1 0 1 0 1 0 1 0 1 1 1 1 0 0 0 0 0 1 1 1 0 0 0 0 0 1 1 1 0 0 1 0 0 1 1 1 1 1 1 1 1 1 1 0 0 1 1 1 1 0
    1       1    1 0 0 0 0 0 0 0 1 0 1 0 0 1 1 0 0 0 0 1 0 1 0 0 1 1 0 0 0 0 0 0 1 1 1 1 0 0 0 0 0 1 0 1 1 1 1 0 0 1 0
    1       0    0 0 0 0 0 1 1 0 1 1 0 1 0 0 0 0 1 1 0 1 1 0 0 1 1
   37       2    0 1 0 1 0 1 0 1 0 1 1 1 1 1 0 0 0 0 1 1 0 0 0 1 0 0 1 1 1 0 0 1 0 0 1 1 1 1 1 1 1 1 1 1 0 0 1 1 1 1 0
    1       1    1 0 0 0 0 0 0 0 1 0 1 0 0 1 1 0 0 0 1 1 0 1 0 0 1 1 0 0 0 0 0 0 1 0 1 1 0 0 0 0 0 1 0 1 1 1 1 0 0 1 0
    1       0    0 0 0 0 0 1 1 0 1 1 0 1 0 0 0 1 1 1 0 1 1 0 0 1 1
   38       2    0 1 0 1 0 1 0 1 0 1 1 1 1 0 0 0 0 0 1 1 1 1 0 0 0 0 1 0 1 0 0 1 0 0 1 1 1 1 1 1 1 1 1 1 0 0 1 1 1 1 0
    1       1    1 0 0 0 0 0 0 0 1 0 1 0 0 1 1 0 0 0 1 1 0 1 0 0 1 1 0 0 0 0 0 0 1 0 1 1 0 0 0 0 0 1 0 1 1 1 1 0 0 1 0
    1       0    0 0 0 0 0 1 1 0 1 1 0 1 0 0 0 1 1 1 0 1 1 0 0 1 1
   39       2    0 1 0 1 0 1 0 1 0 1 1 1 1 1 0 0 0 0 1 1 1 0 0 0 1 0 1 0 1 0 0 1 0 0 1 1 1 1 1 1 1 1 1 1 0 0 1 1 1 1 0
    1       1    1 0 0 0 0 0 0 0 1 0 1 0 0 1 1 0 0 0 1 1 0 1 0 0 1 1 0 0 0 0 0 0 1 0 1 1 0 0 0 0 0 1 0 1 1 1 1 0 0 1 0
    1       0    0 0 0 0 0 1 1 0 1 1 0 1 0 0 0 0 1 1 0 1 1 0 0 1 1
   40       2    0 1 0 1 0 1 0 1 0 1 1 1 1 1 0 0 1 0 0 1 1 0 0 0 0 0 1 1 1 0 0 1 0 0 1 0 1 1 1 1 1 1 1 1 0 0 1 1 1 1 0
    1       1    1 0 0 0 0 0 0 0 1 0 1 0 0 1 1 0 0 0 1 1 0 1 0 0 1 1 0 0 0 0 0 0 1 0 1 1 0 0 0 0 0 1 0 1 1 1 1 0 0 1 0
    1       0    0 0 0 0 0 1 1 0 1 1 1 1 0 0 0 1 1 1 0 1 1 0 0 1 1
   41       2    0 1 0 1 0 1 0 1 0 1 1 1 1 1 0 0 0 0 0 1 1 0 0 0 0 0 1 1 1 0 0 1 0 0 0 1 1 1 1 1 1 1 1 1 0 0 1 1 1 1 0
    1       1    1 0 0 0 0 0 0 0 1 1 1 0 0 1 1 0 0 0 1 1 0 1 0 0 1 1 0 0 0 0 0 0 1 0 1 1 0 0 0 0 0 1 0 1 1 1 1 0 0 1 0
    1       0    0 0 0 0 0 1 1 0 1 0 0 1 0 0 0 0 1 1 0 1 1 0 0 1 1
   42       2    0 1 0 1 0 1 0 1 0 1 1 1 1 1 0 0 0 0 1 1 1 0 0 0 0 0 1 1 1 0 0 1 0 0 1 1 1 1 1 1 1 1 1 1 0 0 1 1 1 1 0
    1       1    1 0 0 0 0 0 0 0 1 0 1 0 0 1 1 0 0 0 1 1 0 1 0 0 1 1 0 0 0 0 0 0 1 0 1 1 0 0 0 0 0 1 0 1 1 1 1 0 0 1 0
    1       0    0 0 0 0 0 1 1 0 1 1 0 1 0 0 0 1 1 1 0 1 1 0 0 1 1
   43       2    0 1 0 1 0 1 0 1 0 1 1 1 1 0 0 0 0 0 1 1 1 0 0 0 0 0 1 1 1 0 0 1 0 0 1 1 1 1 1 1 1 1 1 1 0 0 1 1 1 1 0
    1       1    1 0 0 0 0 0 0 0 0 0 1 0 0 1 1 0 0 0 1 1 0 1 0 0 1 1 0 0 0 0 0 0 1 0 1 1 0 0 1 0 0 1 0 1 1 1 1 0 0 1 0
    1       0    0 0 0 0 0 1 1 0 1 1 0 1 0 0 1 0 1 1 0 1 1 0 0 1 1
   44       2    0 1 0 1 0 1 0 1 0 1 1 1 1 1 0 0 0 0 1 1 1 0 0 0 0 0 1 1 1 0 0 1 0 0 1 1 1 1 1 1 1 1 1 1 0 0 1 1 1 1 0
    1       1    1 0 0 0 0 0 0 0 1 0 1 0 0 1 1 0 0 0 1 1 0 1 0 0 1 1 0 0 0 0 0 0 1 0 1 1 0 0 0 0 0 1 0 1 1 1 1 0 0 1 0
    1       0    0 0 0 0 0 1 1 0 1 1 0 1 0 0 0 0 1 1 0 1 1 0 0 1 1
   45       2    0 1 0 1 0 1 0 1 0 1 1 1 1 1 0 0 0 0 1 1 1 0 0 0 0 0 1 1 1 0 0 1 0 0 1 1 1 1 1 1 1 1 1 1 0 0 1 1 1 1 0
    1       1    1 0 0 0 0 0 0 0 1 0 1 0 0 1 1 0 0 0 1 1 0 1 0 0 1 1 0 0 0 0 0 0 1 0 1 1 0 0 0 0 0 1 0 1 1 1 1 0 0 1 0
    1       0    0 0 0 0 0 1 1 0 1 1 0 1 0 0 0 0 1 1 0 1 1 0 0 1 1
   46       2    0 1 0 1 0 1 0 1 0 1 1 1 1 1 0 0 0 0 1 1 1 0 0 0 0 0 1 1 1 0 0 1 0 0 1 0 1 1 1 1 1 1 1 1 0 0 1 1 1 1 0
    1       1    1 0 0 0 0 1 0 0 1 0 1 0 0 1 1 0 0 0 1 1 0 1 0 0 1 1 0 0 0 0 0 0 1 0 1 1 0 0 0 0 1 1 0 1 1 1 1 0 0 1 0
    1       0    0 0 0 0 0 1 1 0 1 1 0 1 0 0 0 0 1 1 0 1 1 0 0 1 1
   47       2    0 1 0 1 0 1 0 1 0 1 1 1 1 1 0 1 0 0 1 1 1 0 0 0 0 0 1 1 1 0 0 1 0 0 1 0 1 1 1 1 1 1 1 1 0 0 1 1 1 1 0
    1       1    1 0 0 0 0 0 0 0 1 0 1 0 0 1 1 0 0 0 1 1 0 1 0 0 1 1 0 0 0 0 0 0 1 0 1 1 0 0 0 0 0 1 0 1 1 1 1 0 0 1 0
    1       0    0 0 0 0 0 1 1 0 1 0 0 1 0 0 0 0 1 1 0 1 1 0 0 1 1
   48       2    0 1 0 1 0 1 0 1 0 1 1 1 1 1 0 0 0 0 1 1 1 0 0 0 0 0 1 1 1 0 0 1 0 0 1 1 1 1 1 1 1 1 1 1 0 0 1 1 1 1 0
    1       1    1 0 0 0 0 0 0 0 1 0 1 0 0 1 1 0 0 0 1 1 0 1 0 0 1 1 0 0 0 0 0 0 1 0 1 1 0 0 0 0 0 1 0 1 1 1 1 0 0 1 1
    1       0    0 0 0 0 0 1 1 0 1 1 0 1 0 0 0 1 1 1 0 1 1 0 0 1 1
   49       2    0 1 0 1 0 1 0 1 0 1 1 1 1 1 0 0 0 0 1 1 1 0 0 0 0 0 1 1 1 0 0 1 0 0 1 1 1 1 1 1 1 1 1 1 0 0 1 1 1 1 0
    1       1    1 0 0 0 0 0 0 0 1 0 0 1 0 1 1 0 0 0 1 1 0 1 0 0 1 1 0 0 0 0 0 0 1 0 1 1 0 0 0 0 0 1 0 1 1 1 1 0 0 1 1
    1       0    0 0 0 0 0 1 1 0 1 1 0 1 0 0 0 0 1 1 0 1 1 0 0 1 1
   50       2    0 1 0 1 0 1 0 1 0 1 1 1 1 1 0 0 0 0 1 1 1 0 0 0 0 1 1 1 1 0 0 1 0 0 1 1 1 1 1 1 1 1 1 1 0 0 1 1 1 1 0
    1       1    1 0 0 0 0 0 0 0 1 0 1 0 1 1 1 0 0 0 1 1 0 1 0 0 1 1 0 0 0 0 0 0 1 0 1 1 0 0 0 0 0 1 0 1 1 1 1 0 0 1 1
    1       0    0 0 0 0 0 1 1 0 1 1 0 1 0 0 0 0 1 1 0 1 1 0 0 1 1
   51       2    0 1 0 1 0 1 0 1 0 1 1 1 1 1 1 0 0 0 1 1 0 0 0 0 0 0 1 1 1 0 0 1 0 0 1 1 1 1 1 1 1 1 1 1 0 0 1 1 1 1 0
    1       1    1 0 0 0 0 0 0 0 1 0 1 0 0 1 1 0 0 0 1 1 0 0 0 0 1 1 0 0 0 0 0 0 1 0 1 1 0 0 0 0 0 1 0 1 1 1 1 0 0 1 1
    1       0    0 0 0 0 0 1 1 0 0 0 0 1 0 0 0 0 1 1 0 1 1 0 0 1 1
   52       2    0 1 0 1 0 1 0 1 0 1 1 1 1 1 0 0 0 0 1 1 1 0 0 0 0 1 1 1 1 0 0 1 0 0 1 1 1 1 1 1 1 1 1 1 0 0 1 1 1 1 0
    1       1    1 0 0 0 0 0 0 0 1 0 1 0 0 1 1 0 0 0 1 1 0 1 0 0 1 1 0 0 0 0 0 0 1 0 1 1 0 0 0 0 0 1 0 1 1 1 1 0 0 1 1
    1       0    0 0 0 0 0 1 1 0 1 1 0 1 0 0 0 0 1 1 0 1 1 0 0 1 1
   53       2    0 1 0 1 0 1 0 1 0 1 1 1 1 1 0 0 0 0 1 1 1 0 0 0 0 0 1 1 1 0 0 1 0 0 1 1 1 1 1 1 1 1 1 1 0 0 1 1 1 1 0
    1       1    1 0 0 0 0 0 0 0 1 0 0 1 0 1 1 0 0 0 1 1 0 1 0 0 1 1 0 0 0 0 0 0 1 0 1 1 0 0 0 0 0 1 0 1 1 1 1 0 0 1 1
    1       0    0 0 0 0 0 1 1 0 1 1 0 1 0 0 0 0 1 1 0 1 1 0 0 1 1
   54       2    0 1 0 1 0 1 0 1 0 1 1 1 1 1 0 0 0 0 1 1 1 0 0 0 0 0 1 1 1 0 0 1 0 0 1 1 0 1 1 1 1 1 1 1 0 0 1 1 1 1 0
    1       1    1 0 0 0 0 0 0 0 1 0 1 0 0 1 1 0 0 0 1 0 0 1 0 0 1 1 0 0 0 0 0 0 1 0 1 1 0 0 0 0 0 1 0 1 1 1 1 0 0 1 1
    1       0    0 0 0 0 0 1 1 0 1 1 0 1 0 0 0 0 1 1 0 1 1 0 0 1 1
   8800000.00000000        1618033.00000000       0.000000000000000E+000
  1.136363636363636E-007   558296.000000000        6524285.00000000     
           1          41          17
   7843473.00000000        255706.000000000        3178967.00000000     
   6535718.00000000        995083.000000000        7635845.00000000     
   4738960.00000000        3723346.00000000        6266174.00000000     
   6938170.00000000        3519709.00000000        3419065.00000000     
   3730897.00000000        4100211.00000000        5246426.00000000     
   7841785.00000000        3221256.00000000        2768410.00000000     
   4216873.00000000        6108728.00000000        1058794.00000000     
   8131252.00000000        6676589.00000000        4760272.00000000     
   5117706.00000000        1944624.00000000        8775112.00000000     
   6917306.00000000        7396006.00000000        5193082.00000000     
   381815.000000000        3458129.00000000        5186824.00000000     
   3366280.00000000        2636559.00000000        1681804.00000000     
   6833233.00000000        567915.000000000        2917200.00000000     
   3087195.00000000        558296.000000000        4432763.00000000     
   3828620.00000000        5800446.00000000        4228048.00000000     
   7055031.00000000        5273466.00000000        2594357.00000000     
   1889916.00000000        8029155.00000000        8409520.00000000     
   8190072.00000000        1874734.00000000        678745.000000000     
   6605909.00000000     
   8800000.00000000        1618033.00000000       0.000000000000000E+000
  1.136363636363636E-007   4578243.00000000        1667309.00000000     
           1          47          23
   7372813.00000000        5943786.00000000        3335662.00000000     
   6446051.00000000        472876.000000000        699612.000000000     
   6089916.00000000        5335333.00000000        69596.0000000000     
   1052530.00000000        875397.000000000        2003351.00000000     
   8249617.00000000        1745588.00000000        4461577.00000000     
   7347406.00000000        2966078.00000000        3038935.00000000     
   6438373.00000000        2345506.00000000        5722113.00000000     
   6380839.00000000        5143736.00000000        8770018.00000000     
   7395662.00000000        6646778.00000000        2713734.00000000     
   5115859.00000000        3973452.00000000        8319574.00000000     
   3064614.00000000        2262445.00000000        2950370.00000000     
   6323013.00000000        5967192.00000000        4096386.00000000     
   3022237.00000000        7594770.00000000        5197221.00000000     
   6856856.00000000        2870188.00000000        5888440.00000000     
   5134981.00000000        2641764.00000000        3056195.00000000     
   6642416.00000000        4578243.00000000        1785258.00000000     
   1302017.00000000        5954256.00000000        6057112.00000000     
   2711691.00000000        259857.000000000        7567006.00000000     
   5093478.00000000     
   8800000.00000000        1618033.00000000       0.000000000000000E+000
  1.136363636363636E-007   7217695.00000000        2512077.00000000     
           1          47          23
   780977.000000000        2475162.00000000        801666.000000000     
   7416231.00000000        7731492.00000000        2138592.00000000     
   605640.000000000        8187053.00000000        5173840.00000000     
   1654322.00000000        3966617.00000000        7626867.00000000     
   5575285.00000000        7007608.00000000        845173.000000000     
   3056878.00000000        7093266.00000000        5403619.00000000     
   1745573.00000000        333518.000000000        2361149.00000000     
   2462487.00000000        4882608.00000000        6951438.00000000     
   4552086.00000000        1404030.00000000        2439362.00000000     
   6868783.00000000        7577776.00000000        20590.0000000000     
   2220674.00000000        1197425.00000000        5302610.00000000     
   3953821.00000000        7076484.00000000        8746238.00000000     
   5518737.00000000        368022.000000000        4299701.00000000     
   1122560.00000000        5015952.00000000        3346212.00000000     
   2879721.00000000        4625856.00000000        917779.000000000     
   6513804.00000000        7217695.00000000        463802.000000000     
   6095921.00000000        883944.000000000        3969152.00000000     
   2962091.00000000        7207253.00000000        2067558.00000000     
   1940250.00000000     
