          44          54   1.00000000000000     
    1       2    0 1 0 0 0 0 0 1 0 0 1 0 1 1 0 1 0 1 1 0 1 1 1 0 0 0 1 0 1 0 0 1 0 0 0 1 0 1 0 0 1 0 1 0 1 0 1 1 1 1 0
    1       1    1 0 1 0 0 0 1 0 0 1 1 0 1 0 1 0 1 1 0 0 0 1 0 0 1 1 0 0 0 0 0 1 0 0 0 0 1 1 0 1 1 1 0 1 1 1 1 0 1 1 1
    1       1    1 0 0 0 1 0 0 0 1 0 1 0 0 0 0 1 1 0 0 1 1 0 0 1 1
    2       2    0 1 0 0 0 0 0 1 0 0 1 0 0 1 0 1 0 0 1 0 0 1 1 0 0 0 1 1 1 0 0 1 0 0 0 1 0 1 0 0 1 0 1 0 1 0 1 1 1 1 0
    1       1    1 0 1 0 0 0 1 1 0 1 1 0 1 0 1 1 1 1 1 0 0 0 0 0 1 1 0 0 0 0 0 1 0 0 0 1 0 1 0 1 0 1 0 1 1 1 1 0 1 1 1
    1       1    1 0 0 0 1 0 0 0 1 0 1 0 1 0 0 1 1 0 0 1 1 0 0 1 1
    3       2    0 1 0 0 0 0 0 1 0 0 1 0 1 1 0 1 0 1 1 0 1 1 1 0 0 0 1 0 1 0 0 1 0 0 0 1 0 1 0 0 1 0 1 0 1 0 1 1 1 1 0
    1       1    1 0 1 0 0 0 1 0 0 1 1 0 1 0 1 0 1 1 0 0 0 1 0 0 1 1 0 0 0 0 0 1 0 0 0 0 1 1 0 1 1 1 0 1 1 1 1 0 1 1 1
    1       1    1 0 0 0 1 0 0 0 1 0 1 0 0 0 0 1 1 0 0 1 1 0 0 1 1
    4       2    0 1 0 0 0 0 0 1 0 0 1 0 1 1 0 1 0 0 1 0 1 1 1 0 0 0 1 0 1 0 0 1 0 1 0 1 0 1 0 0 1 0 1 0 1 0 1 1 1 1 0
    1       1    1 0 1 0 0 0 1 1 0 1 1 1 1 0 1 0 1 1 0 0 0 1 0 0 1 1 0 0 0 0 0 1 0 0 0 0 1 1 0 1 1 1 0 1 1 1 1 0 1 1 1
    1       1    1 0 0 0 1 0 0 0 1 0 1 0 0 0 0 0 1 0 0 1 1 0 0 1 1
    5       2    0 1 0 0 0 0 0 1 0 0 1 0 1 1 0 1 0 1 1 0 1 1 1 0 0 0 1 0 1 0 0 1 0 0 0 1 0 1 0 0 1 0 1 0 1 0 1 1 1 1 0
    1       1    1 0 1 0 0 0 1 0 0 1 1 0 1 0 1 0 1 1 0 0 0 1 0 0 1 1 0 0 0 0 0 1 0 0 0 0 1 1 0 1 1 1 0 1 1 1 1 0 1 1 1
    1       1    1 0 0 0 1 0 0 0 1 0 1 0 0 0 0 1 1 0 0 1 1 0 0 1 1
    6       2    0 1 0 0 0 0 0 1 0 0 1 0 0 1 0 1 0 1 1 0 1 1 1 0 0 0 1 0 1 0 0 1 0 1 0 1 0 1 0 0 1 0 1 0 1 0 1 1 1 1 0
    1       1    1 0 1 0 1 0 1 0 0 1 1 0 1 0 1 0 1 1 0 0 0 1 0 0 1 1 0 0 0 0 0 1 0 0 0 0 1 1 0 1 1 1 0 1 1 1 1 0 1 1 1
    1       1    1 0 0 0 1 0 0 0 1 0 1 0 1 0 0 1 1 0 0 1 1 0 0 1 1
    7       2    0 1 0 0 0 0 0 1 0 0 1 0 0 1 0 1 0 0 1 0 0 1 1 0 0 0 1 1 1 0 0 1 0 1 0 1 0 1 0 0 1 0 1 0 1 0 1 1 1 1 0
    1       1    1 0 1 0 0 0 1 0 0 1 1 0 1 0 0 1 0 1 1 0 0 1 0 0 1 1 0 0 0 0 0 1 0 0 0 1 1 1 0 1 0 1 0 1 1 1 1 0 1 1 1
    1       1    1 0 0 0 1 0 0 0 1 0 1 0 1 0 0 1 1 0 0 1 1 0 0 1 1
    8       2    0 1 0 0 0 0 0 1 0 0 1 0 1 1 0 1 0 0 1 1 1 1 1 0 0 0 1 0 1 0 0 1 0 1 0 1 0 1 0 0 1 0 1 0 1 0 1 1 1 1 0
    1       1    1 0 1 0 0 0 1 1 0 1 1 0 1 0 1 0 1 1 0 0 0 1 0 1 1 1 0 0 0 0 0 1 0 0 0 1 1 1 0 0 1 1 0 1 1 1 1 0 1 1 1
    1       1    1 0 0 0 1 0 0 0 1 0 1 0 0 1 0 0 1 0 0 1 1 0 0 1 1
    9       2    0 1 0 0 0 0 0 1 0 0 1 0 0 1 0 1 0 0 1 0 0 1 1 0 0 0 1 0 1 0 0 1 0 0 0 1 0 1 0 0 1 0 1 0 1 0 1 1 1 1 0
    1       1    1 0 1 0 0 0 1 0 0 1 1 0 1 0 1 0 1 1 1 0 0 1 0 0 1 1 0 0 0 0 0 1 0 0 0 0 1 1 1 1 0 1 0 1 1 1 1 0 1 1 1
    1       1    1 0 0 0 1 0 0 0 1 0 1 0 0 0 0 1 1 0 0 1 1 0 0 1 1
   10       2    0 1 0 0 0 0 0 1 0 0 1 0 1 1 0 1 0 0 1 0 0 1 1 0 0 0 1 1 1 0 0 1 0 1 0 1 0 1 0 0 1 0 1 0 1 0 1 1 1 1 0
    1       1    1 0 1 0 0 0 0 0 0 1 1 0 1 0 0 1 0 1 1 0 0 1 0 0 1 1 0 0 0 0 0 1 0 0 0 1 1 1 0 1 0 1 0 1 1 1 1 0 1 1 1
    1       1    1 0 0 0 1 0 0 0 1 0 1 0 1 0 0 1 1 0 0 1 1 0 0 1 1
   11       2    0 1 0 0 0 0 0 1 0 0 1 0 0 1 0 1 0 1 0 0 0 1 1 1 0 0 1 1 1 0 0 1 0 1 0 0 0 1 0 0 1 0 1 0 1 0 1 1 1 1 0
    1       1    1 0 1 0 0 1 1 0 0 1 1 0 1 0 1 1 1 0 0 0 0 1 0 0 1 1 0 0 0 0 0 1 0 0 0 0 1 1 0 0 0 1 0 1 1 1 1 0 1 1 1
    1       1    1 0 0 0 1 0 0 0 1 1 1 0 0 0 0 1 1 0 0 1 1 0 0 1 1
   12       2    0 1 0 0 0 0 0 1 0 0 1 0 1 1 0 1 0 0 1 0 1 1 1 0 0 0 1 0 1 0 0 1 0 1 0 1 0 1 0 0 1 0 1 0 1 0 1 1 1 1 0
    1       1    1 0 1 0 0 0 1 0 1 1 1 0 1 0 1 0 1 1 0 0 0 1 0 1 1 1 0 0 0 0 0 1 0 0 0 0 1 1 0 1 1 1 0 1 1 1 1 0 1 1 1
    1       1    1 0 0 0 1 0 0 0 1 0 1 0 0 0 0 1 1 1 0 1 1 0 0 1 1
   13       2    0 1 0 0 0 0 0 1 0 0 1 0 1 1 0 1 0 0 1 1 0 0 1 0 0 0 1 1 0 1 0 0 0 1 0 1 0 1 0 0 1 1 1 0 1 0 0 1 1 1 0
    1       0    1 0 1 1 0 0 1 0 0 1 1 1 1 0 0 0 0 1 0 0 0 1 1 1 1 1 0 0 0 0 0 1 0 1 1 1 0 1 0 0 0 1 0 1 1 1 0 0 0 1 1
    1       1    1 0 0 0 1 1 0 0 0 0 1 0 0 0 0 0 1 0 0 1 1 0 0 1 1
   14       2    0 1 0 0 0 0 0 1 0 0 1 0 0 1 0 0 0 0 1 0 0 0 1 0 0 0 1 1 1 0 0 0 0 0 0 1 0 1 0 0 1 0 1 0 1 0 1 1 1 1 0
    1       1    1 0 1 1 0 0 1 0 0 1 1 0 1 0 1 1 0 1 0 0 0 1 0 0 1 1 0 0 0 0 0 1 0 0 1 1 0 1 0 1 0 1 0 1 1 1 1 1 1 1 1
    1       1    1 0 0 0 0 0 0 0 1 0 1 0 1 0 0 1 1 0 0 1 1 0 0 1 1
   15       2    0 1 0 0 0 0 0 1 0 0 1 0 0 1 0 0 0 0 1 0 0 1 1 0 0 0 1 1 1 0 0 1 0 1 0 1 0 1 0 0 1 0 1 0 1 0 1 1 1 1 0
    1       1    1 0 1 1 0 0 1 0 0 1 1 0 1 0 1 0 0 1 0 0 0 1 0 0 1 1 0 0 0 0 0 1 0 0 1 1 1 1 0 1 0 1 0 1 1 1 1 1 1 1 1
    1       1    1 0 0 0 0 0 0 0 1 0 1 0 1 0 0 1 1 0 0 1 1 0 0 1 1
   16       2    0 1 0 0 0 0 0 1 0 0 1 0 1 1 0 0 0 0 1 0 0 1 1 0 0 0 1 1 1 0 0 1 0 0 0 1 0 1 0 0 1 0 1 0 1 0 1 1 1 1 0
    1       1    1 0 1 1 0 0 1 0 0 1 1 0 1 0 1 0 0 1 0 0 0 0 0 0 1 1 0 0 0 0 0 1 0 0 1 1 1 1 0 1 0 1 0 1 1 1 1 1 1 1 1
    1       1    1 0 0 0 0 0 0 0 1 0 1 0 0 0 0 1 1 0 0 1 1 0 0 1 1
   17       2    0 1 0 0 0 0 0 1 0 0 1 0 1 1 0 0 0 1 1 0 1 0 1 0 0 0 1 1 1 0 0 1 0 0 0 1 0 1 0 0 1 0 1 0 1 0 1 1 1 1 0
    1       1    1 0 1 1 0 0 1 0 0 1 1 0 1 0 1 1 0 1 0 0 0 1 0 0 1 1 0 0 0 0 0 1 0 0 0 0 0 1 0 1 1 1 0 1 1 1 1 1 1 1 1
    1       1    1 0 0 0 0 0 0 0 0 0 1 0 0 0 0 1 1 0 0 1 1 0 0 1 1
   18       2    0 1 0 0 0 0 0 1 0 0 1 0 0 1 0 0 0 0 1 0 0 0 1 0 0 0 1 1 1 0 0 0 0 0 0 1 0 1 0 0 1 0 1 0 1 0 1 1 1 1 0
    1       1    1 0 1 1 0 0 1 0 0 1 1 0 1 0 1 1 0 1 0 0 0 1 0 0 1 1 0 0 0 0 0 1 0 0 1 1 0 1 0 1 0 1 0 1 1 1 1 1 1 1 1
    1       1    1 0 0 0 0 0 0 0 1 0 1 0 1 0 0 1 1 0 0 1 1 0 0 1 1
   19       2    0 1 0 0 0 0 0 1 0 0 1 0 1 1 0 0 0 0 1 0 0 1 1 0 0 0 1 0 1 0 0 1 0 1 0 1 0 1 0 0 1 0 1 0 1 0 1 1 1 1 0
    1       1    1 0 1 1 0 0 1 0 0 1 1 0 1 0 1 0 0 1 0 0 0 1 0 1 1 1 0 0 0 0 0 1 0 0 1 1 1 1 0 1 0 1 0 1 1 1 1 1 1 1 1
    1       1    1 0 0 0 0 0 0 0 1 0 1 0 1 0 0 0 1 0 0 1 1 0 0 1 1
   20       2    0 1 0 0 0 0 0 1 0 0 1 0 1 1 0 1 0 0 1 0 0 1 1 0 0 0 1 1 1 0 0 1 0 1 0 1 0 1 0 0 1 0 1 0 1 0 1 1 1 1 0
    1       1    1 0 1 1 0 0 1 0 0 1 1 0 1 0 1 0 1 1 0 0 0 1 0 1 1 1 0 0 0 0 0 1 0 0 0 1 1 1 0 1 0 1 0 1 1 1 1 0 1 1 1
    1       1    1 0 0 0 1 0 0 0 1 0 1 0 0 0 0 1 1 0 0 1 1 0 0 1 1
   21       2    0 1 0 0 0 0 0 1 0 0 1 0 1 1 0 1 0 0 1 0 0 1 1 0 0 0 1 1 1 0 0 1 0 1 0 1 0 1 0 0 1 0 1 0 1 0 1 1 1 1 0
    1       1    1 0 1 1 0 0 1 0 0 1 1 0 1 0 1 1 1 1 0 0 0 1 0 1 1 1 0 0 0 0 0 1 0 0 0 1 1 1 0 1 0 1 0 1 1 1 1 0 1 1 1
    1       1    1 0 0 0 1 0 0 0 1 0 1 0 0 0 0 1 1 0 0 1 1 0 0 1 1
   22       2    0 1 0 0 0 0 0 1 0 0 1 0 1 1 0 1 0 0 1 0 0 1 1 0 0 0 1 1 1 0 0 1 0 1 0 1 0 1 0 0 1 0 1 0 1 0 1 1 1 1 0
    1       1    1 0 1 1 0 0 1 0 0 1 1 0 1 0 1 0 1 1 0 0 0 1 0 1 1 1 0 0 0 0 0 1 0 0 0 1 1 1 0 1 0 1 0 1 1 1 1 0 1 1 1
    1       1    1 0 0 0 1 0 0 0 1 0 1 0 0 0 0 1 1 0 0 1 1 0 0 1 1
   23       2    0 1 0 0 0 0 0 1 0 0 1 0 1 1 0 1 0 0 1 0 0 1 1 0 0 0 1 1 1 0 0 1 0 1 0 1 0 1 0 0 1 0 1 0 1 0 1 1 1 1 0
    1       1    1 0 1 1 0 0 1 0 0 1 1 0 1 0 1 0 1 1 0 0 0 1 0 1 1 1 0 0 0 0 0 1 0 0 0 1 1 1 0 1 0 1 0 1 1 1 1 0 1 1 1
    1       1    1 0 0 0 1 0 0 0 1 0 1 0 0 0 0 1 1 0 0 1 1 0 0 1 1
   24       2    0 1 0 0 0 0 0 1 0 0 1 0 1 1 0 1 0 0 1 0 1 1 1 0 0 0 1 0 1 0 0 1 0 0 0 1 0 1 0 0 1 0 1 0 1 0 1 1 1 1 0
    1       1    1 0 1 1 0 0 1 0 0 1 1 0 1 0 1 0 1 1 0 0 0 1 0 1 1 1 0 0 0 0 0 1 0 0 0 1 1 1 0 1 1 1 0 1 1 1 1 0 1 1 1
    1       1    1 0 0 0 1 0 0 0 1 0 1 0 0 0 0 1 1 0 0 1 1 0 0 1 1
   25       2    0 1 0 0 0 0 0 1 0 0 1 0 1 1 0 1 0 0 1 0 1 1 1 0 0 1 1 1 1 0 0 1 0 1 0 1 0 1 0 0 1 0 1 0 1 0 1 1 1 1 0
    1       1    1 0 1 1 0 0 1 0 0 1 1 0 1 0 1 0 1 1 0 0 0 1 0 1 1 1 0 0 0 0 0 1 0 0 0 1 1 1 0 1 1 1 0 1 1 1 1 0 1 1 1
    1       1    1 0 0 0 1 0 0 0 1 0 1 0 0 0 0 0 1 0 0 1 1 0 0 1 1
   26       2    0 1 0 0 0 0 0 1 0 0 1 0 1 1 0 1 0 0 1 0 0 1 1 0 0 0 1 1 1 0 0 1 0 0 0 1 0 1 0 0 1 0 1 0 1 0 1 1 1 1 0
    1       1    1 0 1 1 0 0 1 0 0 1 1 0 1 0 1 0 1 1 0 0 0 1 0 1 1 1 0 0 0 0 0 1 0 0 0 1 1 1 0 1 0 1 0 1 1 1 1 0 1 1 1
    1       1    1 0 0 0 1 0 0 0 1 0 1 0 0 0 0 1 1 0 0 1 1 0 0 1 1
   27       2    0 1 0 0 0 0 0 1 0 0 1 0 1 1 0 1 0 0 1 0 0 1 1 0 0 0 1 1 1 0 0 1 0 1 0 1 0 1 0 0 1 0 1 0 1 0 1 1 1 1 0
    1       1    1 0 1 1 0 0 1 0 0 1 1 0 1 0 1 0 1 1 0 0 0 1 0 1 1 1 0 0 0 0 0 1 0 0 0 1 1 1 0 1 0 1 0 1 1 1 1 0 1 1 1
    1       1    1 0 0 0 1 0 0 0 1 0 1 0 0 0 0 1 1 1 0 1 1 0 0 1 1
   28       2    0 1 0 0 0 0 0 1 0 0 1 0 1 1 1 1 0 0 1 0 0 1 1 0 0 0 1 1 1 0 0 1 0 0 0 1 0 1 0 0 1 0 1 0 1 0 1 1 1 1 0
    1       1    1 0 1 1 0 0 1 0 0 1 0 0 1 0 1 0 1 1 0 0 0 1 0 1 1 1 0 0 0 0 0 1 0 0 0 1 1 1 0 1 0 1 0 1 1 1 1 0 1 1 1
    1       1    1 0 0 0 1 0 0 0 1 0 1 0 0 0 0 1 1 0 0 1 1 0 0 1 1
   29       2    0 1 0 0 0 0 0 1 0 0 1 0 1 1 0 1 0 0 1 0 0 1 1 0 0 0 1 0 1 0 0 1 0 0 0 1 0 1 0 0 1 0 1 0 1 0 1 1 1 1 0
    1       1    1 0 1 1 0 0 1 0 0 1 1 0 1 0 1 0 1 1 0 0 0 1 1 1 1 1 0 0 0 0 0 1 0 0 0 1 1 1 0 1 1 1 0 1 1 1 1 0 1 1 1
    1       1    1 0 0 0 1 0 0 0 1 0 1 0 0 0 0 1 1 0 0 1 1 0 0 1 1
   30       2    0 1 0 0 0 0 0 1 0 0 1 0 1 1 0 1 0 0 1 0 1 1 1 0 0 0 0 1 1 0 0 1 0 1 0 1 0 1 0 0 1 0 1 0 1 0 1 1 1 1 0
    1       1    1 0 1 1 0 0 1 0 0 1 1 0 1 0 1 0 1 1 0 0 0 1 0 1 1 1 0 0 0 0 0 1 0 0 0 1 1 1 0 1 0 1 0 1 1 1 1 0 1 1 1
    1       1    1 0 0 0 1 0 0 0 1 0 1 0 0 0 0 1 1 0 0 1 1 0 0 1 1
   31       2    0 1 0 0 0 0 0 1 0 0 1 0 1 1 0 1 0 0 1 1 0 1 1 0 0 1 1 1 1 0 0 1 0 1 0 1 0 1 0 0 1 0 1 0 1 0 1 1 1 1 0
    1       1    1 0 1 1 0 0 1 0 0 1 1 0 1 0 1 0 1 1 0 0 0 1 0 1 1 1 0 0 0 0 0 1 0 0 0 1 1 1 0 1 0 1 0 1 1 1 1 0 1 1 1
    1       1    1 0 0 0 1 0 0 0 1 0 1 0 0 0 0 0 1 0 0 1 1 0 0 1 1
   32       2    0 1 0 0 0 0 0 1 0 0 1 0 1 1 0 1 0 0 1 0 1 1 1 0 0 0 1 1 1 0 0 1 0 1 0 1 0 1 0 0 1 0 1 0 1 0 1 1 1 1 0
    1       1    1 0 1 1 0 0 1 0 0 1 1 0 1 0 1 0 1 1 0 0 0 1 0 1 1 1 0 0 0 0 0 1 0 0 0 1 1 1 0 1 1 1 0 1 1 1 1 0 1 1 1
    1       1    1 0 0 0 1 0 0 0 1 0 1 0 0 0 0 0 1 1 0 1 1 0 0 1 1
   33       2    0 1 0 0 0 0 0 1 0 0 1 0 1 1 0 1 0 0 1 0 0 1 1 0 0 0 1 1 1 0 0 1 0 1 0 1 0 1 0 0 1 0 1 0 1 0 1 1 1 1 0
    1       1    1 0 1 1 0 0 1 0 0 1 1 0 1 0 1 0 1 1 0 0 0 1 0 1 1 1 0 0 0 0 0 1 0 0 0 1 1 1 0 1 0 1 0 1 1 1 1 0 1 1 1
    1       1    1 0 0 0 1 0 0 0 1 0 1 0 0 0 0 1 1 0 0 1 1 0 0 1 1
   34       2    0 1 0 0 0 0 0 1 0 0 1 0 1 1 0 1 0 0 1 0 0 1 1 0 0 0 1 1 1 0 0 1 0 1 0 1 0 1 0 0 1 0 1 0 1 0 1 1 1 1 0
    1       1    1 0 1 1 0 0 1 0 0 1 1 0 1 0 1 1 1 1 0 0 0 1 0 1 1 1 0 0 0 0 0 1 0 0 0 1 1 1 0 1 0 1 0 1 1 1 1 0 1 1 1
    1       1    1 0 0 0 1 0 0 0 1 0 1 0 0 0 0 1 1 0 0 1 1 0 0 1 1
   35       2    0 1 0 0 0 0 0 1 0 0 1 0 1 1 0 1 0 0 1 0 0 1 1 0 0 0 1 1 1 0 0 1 0 1 0 1 0 1 0 0 1 0 1 0 1 0 1 1 1 1 0
    1       1    1 0 1 1 0 0 1 0 0 1 1 0 1 0 1 0 1 1 0 0 0 1 0 1 1 1 0 0 0 0 0 1 0 0 0 1 1 1 0 1 0 1 0 1 1 1 1 0 1 1 1
    1       1    1 0 0 0 1 0 0 0 1 0 1 0 0 0 0 1 1 0 0 1 1 0 0 1 1
   36       2    0 1 0 0 0 0 0 1 0 0 1 0 1 1 0 1 0 0 1 0 0 1 1 0 0 0 1 1 1 0 0 1 0 1 0 1 0 1 0 0 1 0 1 0 1 0 1 1 1 1 0
    1       1    1 0 1 1 0 0 1 0 0 1 1 0 1 0 1 1 1 1 0 0 0 1 0 1 1 1 0 0 0 0 0 1 0 1 0 1 1 1 0 1 0 1 0 1 1 1 1 0 1 1 1
    1       1    1 0 0 0 1 0 0 0 1 0 1 0 0 0 0 1 1 0 0 1 1 0 0 1 1
   37       2    0 1 0 0 0 0 0 1 0 0 1 0 1 1 0 1 0 0 1 0 0 1 1 0 0 0 1 1 1 0 0 1 0 1 0 1 0 1 0 0 1 0 1 0 1 0 1 1 1 1 0
    1       1    1 0 1 1 0 0 1 0 0 1 1 0 1 0 1 0 1 1 0 0 0 1 0 1 1 1 0 0 0 0 0 1 0 0 0 1 1 1 0 1 0 1 0 1 1 1 1 0 1 1 1
    1       1    1 0 0 0 1 0 0 0 1 0 1 0 0 0 0 1 1 0 0 1 1 0 0 1 1
   38       2    0 1 0 0 0 0 0 1 0 0 1 0 1 1 0 1 0 1 0 0 0 1 1 1 0 0 1 1 1 0 0 1 0 0 0 0 0 1 0 0 1 0 1 0 1 0 1 1 1 1 0
    1       1    1 0 1 1 0 1 1 0 0 1 1 0 1 0 1 0 1 0 0 0 0 1 0 0 1 1 0 0 0 0 0 1 0 1 0 1 1 1 0 1 0 1 0 1 1 1 1 0 1 1 1
    1       1    1 0 0 0 1 0 0 0 1 0 1 0 0 0 0 1 1 0 0 1 1 0 0 1 1
   39       2    0 1 0 0 0 0 0 1 0 0 1 0 1 1 0 1 0 0 0 0 0 1 1 0 0 0 1 1 1 0 0 1 0 1 0 1 0 1 0 0 1 0 1 0 1 0 1 1 1 1 0
    1       1    1 0 1 1 0 0 1 0 0 1 1 0 1 0 1 0 1 1 0 0 0 1 0 1 1 1 0 0 0 0 0 1 0 0 0 1 1 1 0 1 1 1 0 1 1 1 1 0 1 1 1
    1       1    1 0 0 0 1 0 0 0 1 0 1 0 0 0 0 1 1 1 0 1 1 0 0 1 1
   40       2    0 1 0 0 0 0 0 1 0 0 1 0 1 1 0 1 0 0 1 0 1 1 1 0 0 0 1 0 1 0 0 1 0 0 0 1 0 1 0 0 1 0 1 0 1 0 1 1 1 1 0
    1       1    1 0 1 1 0 1 1 0 0 1 1 0 1 0 1 0 1 1 0 0 0 1 0 1 1 1 0 0 0 0 0 1 0 0 0 0 1 1 0 1 1 1 0 1 1 1 1 0 1 1 1
    1       1    1 0 0 0 1 0 0 0 1 0 1 0 0 0 0 1 1 0 0 1 1 0 0 1 1
   41       2    0 1 0 0 0 0 0 1 0 0 1 0 1 1 0 1 0 0 1 0 1 1 1 0 0 0 1 1 1 0 0 1 0 1 0 1 0 1 0 0 1 0 1 0 1 0 1 1 1 1 0
    1       1    1 0 1 1 0 0 1 0 0 1 1 0 1 0 1 0 1 1 0 0 0 1 0 1 1 1 0 0 0 0 0 1 0 0 0 1 1 1 0 1 0 1 0 1 1 1 1 0 1 1 1
    1       1    1 0 0 0 1 0 0 0 1 0 1 0 0 0 0 1 1 0 0 1 1 0 0 1 1
   42       2    0 1 0 0 0 0 0 1 0 0 1 0 1 1 0 1 0 0 1 1 1 1 1 0 0 1 1 1 1 0 0 1 0 0 0 1 0 1 0 0 1 0 1 0 1 0 1 1 1 1 0
    1       1    1 0 1 1 0 0 1 0 0 1 1 0 1 0 1 0 1 1 0 0 0 1 0 1 1 1 0 0 0 0 0 1 0 0 0 1 1 1 0 1 0 1 0 1 1 1 1 0 1 1 1
    1       1    1 0 0 0 1 0 0 0 1 0 1 0 0 0 0 0 1 0 0 1 1 0 0 1 1
   43       2    0 1 0 0 0 0 0 1 0 0 1 0 1 1 0 1 0 1 0 0 0 1 1 1 0 0 1 1 1 0 0 1 0 1 0 0 0 1 0 0 1 0 1 0 1 0 1 1 1 1 0
    1       1    1 0 1 1 0 1 0 0 0 1 1 0 1 0 1 1 1 0 0 0 0 1 0 0 1 1 0 0 0 0 0 1 0 0 0 1 1 1 0 1 0 1 0 1 1 1 1 0 1 1 1
    1       1    1 0 0 0 1 0 0 0 1 0 1 0 0 0 0 1 1 0 0 1 1 0 0 1 1
   44       2    0 1 0 0 0 0 0 1 0 0 1 0 1 1 0 1 1 0 1 0 0 1 1 0 0 0 1 1 1 1 0 1 0 0 0 1 0 1 0 0 1 0 1 0 1 0 1 1 1 1 0
    1       1    1 0 1 1 0 0 1 0 0 1 1 0 1 0 1 0 1 0 0 0 0 1 0 1 1 1 0 0 0 0 0 1 0 1 0 1 1 1 1 1 0 1 0 1 1 1 1 0 1 1 1
    1       1    1 0 0 0 1 0 0 0 1 0 1 1 0 0 0 1 1 0 0 1 1 0 0 1 1
   45       2    0 1 0 0 0 0 0 1 0 0 1 0 1 0 0 1 0 0 1 0 0 1 1 1 0 0 1 1 1 0 0 1 0 1 0 1 0 1 0 0 1 0 1 0 1 0 1 1 1 1 0
    1       1    1 0 1 1 0 0 1 0 0 1 1 0 1 0 1 0 1 0 0 0 0 1 0 1 1 1 0 0 0 0 0 1 0 0 0 1 1 1 0 1 1 1 0 1 1 1 1 0 1 1 1
    1       1    1 0 0 0 1 0 0 0 1 0 1 0 0 0 0 1 1 0 0 1 1 0 0 1 1
   46       2    0 1 0 0 0 0 0 1 0 0 1 0 1 1 0 1 0 0 1 0 0 1 1 0 0 0 1 1 1 0 0 1 0 1 0 1 0 1 0 0 1 0 1 0 1 0 1 1 1 1 0
    1       1    1 0 1 1 0 0 1 0 0 1 1 0 1 0 1 0 1 1 0 0 0 1 0 1 1 1 0 0 0 0 0 1 0 0 0 1 1 0 0 1 0 1 0 1 1 1 1 0 1 1 1
    1       1    1 0 0 0 1 0 0 0 1 0 1 0 0 0 0 0 1 0 0 1 1 0 0 1 1
   47       2    0 1 0 0 0 0 0 1 0 0 1 0 1 1 0 1 0 0 1 0 0 1 1 0 0 0 0 1 1 0 0 1 0 1 0 1 0 1 0 0 1 0 1 0 1 0 1 1 1 1 0
    1       1    1 0 1 1 0 0 1 0 0 1 1 0 1 0 1 0 1 1 0 0 0 1 0 1 1 1 0 0 0 0 0 1 0 0 0 1 1 1 0 1 0 1 0 1 1 1 1 0 1 1 1
    1       1    1 0 0 0 1 0 0 0 1 0 1 0 0 0 0 1 1 0 0 1 1 0 0 1 1
   48       2    0 1 0 0 0 0 0 1 0 0 1 0 0 1 0 1 0 0 1 0 0 1 1 0 0 0 1 0 1 0 0 1 0 1 0 1 0 1 0 0 1 0 1 0 1 0 1 1 1 1 0
    1       1    1 0 1 1 0 0 1 0 0 1 1 0 1 0 1 0 1 1 1 0 0 1 0 1 1 1 0 0 0 0 0 1 0 0 0 1 1 1 0 1 0 1 0 1 1 1 1 0 1 1 1
    1       1    1 0 0 0 1 0 0 0 1 0 1 0 1 0 0 1 0 0 0 1 1 0 0 1 1
   49       2    0 1 0 0 0 0 0 1 0 0 1 0 1 1 0 1 0 0 1 0 0 1 1 0 0 0 1 0 1 0 0 1 0 1 0 1 0 1 0 0 1 0 1 0 1 0 1 1 1 1 0
    1       1    1 0 1 1 0 0 1 0 0 1 1 1 1 0 1 0 1 1 0 0 0 1 0 1 1 1 0 0 0 0 0 0 0 0 0 0 1 1 0 1 1 1 0 1 1 1 1 0 1 1 1
    1       1    1 0 0 0 1 0 0 0 1 1 1 0 0 0 0 1 1 0 0 1 1 0 0 1 1
   50       2    0 1 0 0 0 0 0 1 0 0 1 0 1 1 0 1 0 0 1 0 0 1 1 0 0 0 1 0 1 0 0 1 1 0 0 1 0 1 0 0 1 0 1 0 1 0 1 1 1 1 0
    1       1    1 0 1 1 0 0 1 0 0 1 1 0 1 0 1 0 1 1 1 0 0 1 0 1 1 1 0 0 0 0 0 1 0 0 0 1 1 1 0 1 0 1 0 1 1 1 1 0 1 1 1
    1       1    1 0 0 0 1 0 0 0 1 0 1 0 0 0 0 1 1 0 0 1 1 0 0 1 1
   51       2    0 1 0 0 0 0 0 1 0 0 1 0 1 1 1 1 0 1 1 0 1 1 1 0 0 0 1 1 1 0 0 1 0 1 0 1 0 1 0 0 1 0 1 0 1 0 1 1 1 1 0
    1       1    1 0 1 1 1 0 1 0 0 1 1 0 1 0 1 0 0 1 0 0 0 1 0 1 1 1 0 0 0 0 0 1 0 0 0 1 0 1 0 1 0 1 0 1 1 1 1 0 1 1 1
    1       1    1 0 0 0 1 0 0 0 1 0 1 0 1 0 0 1 1 0 0 1 1 0 0 1 1
   52       2    0 1 0 0 0 0 0 1 0 0 1 0 0 1 0 1 0 1 1 0 0 1 1 0 0 0 1 0 1 0 0 1 0 1 0 1 0 1 0 0 1 0 1 0 1 0 1 1 1 1 0
    1       1    1 0 1 1 0 0 1 0 0 1 1 0 1 0 1 0 1 1 1 0 0 1 0 1 1 1 0 0 0 0 0 1 0 0 0 1 1 1 0 1 0 1 0 1 1 1 1 0 1 1 1
    1       1    1 0 0 0 1 0 0 0 1 0 1 0 1 1 0 1 1 0 0 1 1 0 0 1 1
   53       2    0 1 0 0 0 0 0 1 0 0 1 0 1 1 0 1 0 0 1 0 0 1 1 0 0 0 1 0 1 0 0 1 0 1 0 1 0 1 0 0 1 0 1 0 1 0 1 1 1 1 0
    1       1    1 0 1 1 0 1 1 0 0 1 1 0 1 0 1 0 1 1 0 0 0 1 0 1 1 1 0 0 0 0 0 1 0 0 0 1 1 1 0 1 0 1 0 1 1 1 1 0 1 1 1
    1       1    1 0 0 0 1 0 0 0 1 0 1 0 0 0 0 1 1 0 0 1 1 0 0 1 1
   54       2    0 1 0 0 0 0 0 1 0 0 1 0 0 1 0 1 0 0 1 0 0 1 0 0 0 0 1 1 1 0 0 1 0 0 0 1 0 1 0 0 1 0 1 0 1 0 1 1 1 1 0
    1       1    1 0 1 1 1 0 0 1 0 1 1 0 1 0 1 1 0 1 1 0 0 1 0 1 1 1 0 0 0 0 0 1 1 0 0 1 0 1 0 1 0 1 0 1 1 1 1 0 1 1 1
    1       1    1 0 0 0 1 0 0 0 1 0 1 0 1 0 0 1 1 0 0 1 1 0 0 1 1
   8800000.00000000        1618033.00000000       0.000000000000000E+000
  1.136363636363636E-007   2049354.00000000        6524285.00000000     
           1          52          28
   8295788.00000000        3054288.00000000        2464154.00000000     
   8143635.00000000        7322059.00000000        317188.000000000     
   4089531.00000000        7910177.00000000        5636076.00000000     
   735308.000000000        7763515.00000000        3749561.00000000     
   5769358.00000000        6568213.00000000        8783947.00000000     
   8227102.00000000        8359009.00000000        8794033.00000000     
   418143.000000000        2509678.00000000        5528058.00000000     
   1380398.00000000        489666.000000000        3313197.00000000     
   131797.000000000        521061.000000000        8485901.00000000     
   6364353.00000000        3556896.00000000        5008282.00000000     
   242527.000000000        3987065.00000000        7338991.00000000     
   8652081.00000000        7014933.00000000        7266627.00000000     
   8163422.00000000        2598148.00000000        2592982.00000000     
   5753538.00000000        5959513.00000000        3599323.00000000     
   6393988.00000000        1533439.00000000        8129164.00000000     
   6634321.00000000        1213207.00000000        5258980.00000000     
   2653089.00000000        4547486.00000000        6758239.00000000     
   2049354.00000000        4157460.00000000        2895989.00000000     
   6343459.00000000     
   8800000.00000000        1618033.00000000       0.000000000000000E+000
  1.136363636363636E-007   4446441.00000000        1667309.00000000     
           1           3          34
   6234465.00000000        1463431.00000000        4446441.00000000     
   618847.000000000        3762426.00000000        2349265.00000000     
   6133660.00000000        2142257.00000000        2928358.00000000     
   7299176.00000000        4099767.00000000        8297002.00000000     
   4987207.00000000        147072.000000000        1218561.00000000     
   34243.0000000000        2394586.00000000        5175722.00000000     
   7790801.00000000        2913179.00000000        2830224.00000000     
   6539279.00000000        270542.000000000        3840292.00000000     
   3692961.00000000        4060633.00000000        3535690.00000000     
   3829536.00000000        5373771.00000000        636775.000000000     
   6203571.00000000        72424.0000000000        51068.0000000000     
   7977046.00000000        6694630.00000000        2098830.00000000     
   6026381.00000000        3005310.00000000        4120123.00000000     
   414718.000000000        7272369.00000000        1171772.00000000     
   6085000.00000000        6181591.00000000        8779806.00000000     
   8426693.00000000        4795565.00000000        341712.000000000     
   5102702.00000000        4463756.00000000        2665321.00000000     
   7140821.00000000        8115203.00000000        5150728.00000000     
   3524445.00000000     
   8800000.00000000        1618033.00000000       0.000000000000000E+000
  1.136363636363636E-007   6686453.00000000        2512077.00000000     
           1           3          34
   8320369.00000000        8053747.00000000        6686453.00000000     
   1640791.00000000        7555846.00000000        4945497.00000000     
   1579524.00000000        1999073.00000000        8201002.00000000     
   322360.000000000        5080259.00000000        4799326.00000000     
   5618499.00000000        516072.000000000        1103933.00000000     
   8401595.00000000        5075422.00000000        210474.000000000     
   6194913.00000000        7601767.00000000        2718920.00000000     
   6126311.00000000        3676390.00000000        588188.000000000     
   8003577.00000000        5105877.00000000        2343886.00000000     
   2209580.00000000        5565363.00000000        7831443.00000000     
   2765727.00000000        6275388.00000000        363512.000000000     
   6860694.00000000        4615262.00000000        2308934.00000000     
   8488413.00000000        1753486.00000000        1728095.00000000     
   2211022.00000000        7716873.00000000        7550028.00000000     
   4701768.00000000        734131.000000000        1336318.00000000     
   6437745.00000000        2102197.00000000        4800520.00000000     
   7242934.00000000        452020.000000000        2682077.00000000     
   2487149.00000000        2744999.00000000        3272004.00000000     
   342345.000000000     
