          67          54   1.00000000000000     
    1       2    0 1 1 1 0 0 0 1 0 0 1 1 0 0 1 0 0 0 0 0 1 0 1 0 1 0 0 1 1 1 0 1 1 0 1 1 1 1 0 0 1 0 0 0 0 1 0 1 1 1 1
    0       0    0 0 0 0 1 1 0 0 1 1 1 0 1 1 1 0 1 1 0 1 0 0 0 1 1 1 0 0 0 0 0 0 1 1 0 0 1 0 0 0 0 1 1 0 1 0 1 0 0 0 1
    1       1    0 1 0 0 0 1 0 0 0 1 0 0 0 0 0 1 0 0 0 1 1 0 0 1 1
    2       2    0 1 1 1 0 0 0 1 0 0 1 1 0 1 1 0 0 0 0 0 1 0 1 0 1 0 0 1 1 0 1 1 0 0 0 1 1 1 0 0 1 0 0 0 0 1 1 1 1 1 1
    0       0    0 1 0 0 1 1 0 1 1 0 0 0 1 1 0 0 0 0 1 1 0 1 0 0 1 1 0 0 0 0 0 0 1 1 0 0 1 0 0 1 1 1 1 0 1 0 0 1 1 0 1
    1       1    0 1 0 0 0 0 1 1 0 1 0 0 0 1 1 0 0 0 0 1 1 0 0 1 1
    3       2    0 1 1 1 0 0 0 1 0 0 1 1 0 1 1 0 1 0 0 1 0 0 0 0 1 1 1 1 0 1 1 1 1 1 1 1 1 1 0 0 1 0 0 0 0 1 1 1 1 1 1
    0       0    0 1 0 1 1 1 0 0 0 1 0 0 1 1 1 0 0 1 0 0 0 0 0 0 1 1 0 0 0 0 0 0 0 1 0 1 1 0 0 0 0 1 1 0 1 0 0 1 1 0 1
    1       1    0 1 0 0 0 0 1 0 0 1 0 0 1 0 1 1 1 0 0 1 1 0 0 1 1
    4       2    0 1 1 1 0 0 0 1 0 0 1 1 0 1 1 0 1 0 0 1 0 0 0 0 1 1 1 1 0 1 1 1 1 1 1 1 1 1 0 0 1 0 0 0 0 1 1 1 1 1 1
    0       0    0 1 0 1 1 1 0 0 0 1 0 0 1 1 1 0 0 1 0 0 0 0 0 0 1 1 0 0 0 0 0 0 0 1 0 1 1 0 0 0 0 1 1 0 1 0 0 1 1 0 1
    1       1    0 1 0 0 0 0 1 0 0 1 0 0 1 0 1 1 1 0 0 1 1 0 0 1 1
    5       2    0 1 1 1 0 0 0 1 0 0 1 1 0 1 1 0 0 0 0 0 1 0 0 0 1 1 1 1 1 1 1 1 1 1 1 1 1 1 0 0 1 0 0 0 0 1 1 1 1 1 1
    0       0    0 1 0 1 1 1 0 0 0 1 0 0 1 1 1 0 0 1 0 0 0 0 0 0 1 1 0 0 0 0 0 0 0 1 0 1 1 0 0 0 1 1 1 0 1 0 0 1 1 0 1
    1       1    0 1 0 0 0 0 1 0 0 1 0 0 1 0 1 0 1 0 0 1 1 0 0 1 1
    6       2    0 1 1 1 0 0 0 1 0 0 1 1 0 1 1 0 1 0 0 1 0 1 0 0 1 0 1 1 0 1 1 0 1 1 1 1 1 1 0 0 1 0 0 0 0 1 1 1 1 1 1
    0       0    0 1 0 1 1 1 0 0 0 0 0 0 1 0 1 0 0 1 1 1 0 0 0 0 1 1 0 0 0 0 0 0 0 1 0 0 1 0 0 0 0 1 1 0 1 0 0 1 1 0 1
    1       1    0 1 0 0 0 0 1 0 0 1 0 0 1 0 1 0 1 0 0 1 1 0 0 1 1
    7       2    0 1 1 1 0 0 0 1 0 0 1 1 0 1 1 0 0 0 0 0 1 1 0 0 1 0 0 1 1 1 1 0 1 0 1 0 1 1 0 0 1 0 0 0 0 0 1 1 1 1 1
    0       0    0 0 0 1 1 1 0 1 1 1 0 1 1 1 1 0 0 1 1 1 0 0 0 0 1 1 0 0 0 0 0 0 0 1 0 0 1 0 0 0 1 1 1 0 1 0 0 1 1 1 1
    1       1    0 1 0 0 0 1 1 0 0 1 0 0 1 0 1 0 1 0 0 1 1 0 0 1 1
    8       2    0 1 1 1 0 0 0 1 0 0 1 1 0 1 1 0 0 0 0 0 1 1 0 0 1 1 0 1 1 0 1 1 1 0 1 1 0 1 0 0 1 0 0 0 0 0 1 1 1 1 1
    0       0    0 1 0 1 1 1 0 1 1 1 0 0 1 1 1 0 0 1 1 1 0 0 0 0 1 1 0 0 0 0 0 0 0 1 0 0 1 0 0 0 1 1 1 0 1 0 0 1 1 1 1
    1       1    0 1 0 0 0 0 1 0 0 1 0 0 1 0 1 0 1 0 0 1 1 0 0 1 1
    9       2    0 1 1 1 0 0 0 1 0 0 1 1 0 1 1 1 0 0 0 0 1 1 0 0 1 0 0 1 1 0 1 0 0 0 1 1 1 1 0 0 1 0 0 0 0 0 1 1 1 1 1
    0       0    0 1 0 1 1 1 0 1 1 1 0 1 1 1 1 0 0 1 1 1 0 0 0 0 1 1 0 0 0 0 0 0 0 1 0 0 1 0 0 0 1 1 1 0 1 0 0 1 1 1 1
    1       1    0 1 0 0 0 0 1 0 0 1 0 0 0 0 1 1 0 0 0 1 1 0 0 1 1
   10       2    0 1 1 1 0 0 0 1 0 0 1 1 0 1 1 0 0 0 0 0 1 1 0 0 1 0 0 1 1 1 1 1 1 0 1 1 1 1 0 0 1 0 0 0 0 0 1 1 1 1 1
    0       0    0 1 0 1 1 1 0 1 1 1 0 1 0 1 1 0 0 1 1 1 0 0 0 0 1 1 0 0 0 0 0 0 0 1 0 0 1 0 1 0 1 1 1 0 1 0 0 1 1 1 1
    1       1    0 1 0 0 0 0 1 0 0 1 0 0 1 0 1 1 1 0 0 1 1 0 0 1 1
   11       2    0 1 1 1 0 0 0 1 0 0 1 1 0 1 1 0 0 0 0 0 1 1 0 0 1 0 0 1 1 0 1 1 1 0 1 1 0 1 0 0 1 0 0 0 0 0 1 1 1 1 1
    0       0    0 1 0 1 1 1 0 0 1 1 0 0 1 1 1 0 0 0 1 1 0 0 0 0 1 1 0 0 0 0 0 0 0 1 0 0 1 0 0 0 1 1 1 0 1 0 0 1 1 1 1
    1       1    0 1 0 0 0 0 1 0 0 1 0 0 1 0 1 0 1 0 0 1 1 0 0 1 1
   12       2    0 1 1 1 0 0 0 1 0 0 1 1 0 1 1 0 0 0 0 0 1 1 0 0 1 0 0 1 1 0 1 1 1 0 1 1 0 1 0 0 1 0 0 0 0 0 1 1 1 1 1
    0       0    0 1 0 1 1 1 0 1 1 1 0 0 1 1 1 0 0 1 0 1 0 1 0 0 1 1 0 0 0 0 0 0 0 1 0 1 1 0 0 0 0 1 1 0 1 0 0 1 1 1 1
    1       1    0 1 0 0 0 0 1 0 0 1 0 0 1 0 0 0 1 0 0 1 1 0 0 1 1
   13       2    0 1 1 1 0 0 0 1 0 0 1 1 0 1 1 1 0 0 0 0 1 0 0 0 1 0 0 1 0 0 1 0 1 0 1 1 1 1 0 0 1 0 0 0 0 0 1 1 1 1 1
    0       0    0 1 0 1 1 1 0 1 0 1 0 0 1 0 1 0 0 1 1 1 0 0 0 0 1 1 0 0 0 0 0 0 0 1 0 0 1 0 0 0 0 1 1 0 1 0 0 1 1 1 1
    1       1    0 1 0 0 0 0 1 0 0 1 0 0 0 0 0 0 0 0 0 1 1 0 0 1 1
   14       2    0 1 1 1 0 0 0 1 0 0 1 1 0 1 1 1 0 0 0 0 1 1 0 0 1 0 0 1 0 0 1 0 1 1 1 1 1 1 0 0 1 0 0 0 0 0 1 1 1 1 1
    0       0    0 1 0 1 1 1 0 1 0 1 0 0 1 0 1 0 0 1 1 1 0 0 0 0 1 1 0 0 0 0 0 0 0 1 0 0 1 0 0 0 0 1 1 0 1 0 0 1 1 1 1
    1       1    0 1 0 0 0 0 1 0 0 1 0 0 0 0 0 0 1 0 0 1 1 0 0 1 1
   15       2    0 1 1 1 0 0 0 1 0 0 1 1 0 1 1 0 0 0 0 0 1 1 0 0 1 1 0 1 1 0 1 1 1 0 1 1 0 1 0 0 1 0 0 0 0 0 1 1 1 1 1
    0       0    0 1 0 1 1 1 0 1 1 1 0 0 1 1 1 0 0 1 1 1 0 0 0 0 1 1 0 0 0 0 0 0 0 1 0 0 0 0 0 0 1 1 1 0 1 0 0 1 1 1 1
    1       1    0 1 0 0 0 0 1 0 0 1 0 0 1 0 1 0 1 0 0 1 1 0 0 1 1
   16       2    0 1 1 1 0 0 0 1 0 0 1 1 0 1 1 0 0 0 0 0 1 0 0 0 1 0 0 1 1 0 1 1 1 0 1 1 0 1 0 0 1 0 0 0 0 0 1 1 1 1 1
    0       0    0 1 0 1 1 1 0 1 0 1 0 0 1 1 1 0 0 1 1 1 0 1 0 0 1 1 0 0 0 0 0 0 0 1 0 0 1 0 0 0 0 1 1 0 1 0 0 1 1 1 1
    1       1    0 1 0 0 0 0 1 0 0 1 0 0 1 0 0 0 1 0 0 1 1 0 0 1 1
   17       2    0 1 1 1 0 0 0 1 0 0 1 1 0 1 1 1 0 0 0 0 1 0 0 0 1 1 0 1 1 0 1 1 1 0 1 1 0 1 0 0 1 0 0 0 0 0 1 1 1 1 1
    0       0    0 1 0 1 1 1 0 0 0 1 0 0 1 1 1 1 0 1 1 1 0 0 0 0 1 1 0 0 0 0 0 0 0 1 0 0 1 0 0 0 1 1 1 0 1 0 0 1 1 1 1
    1       1    0 1 0 0 0 0 1 0 1 1 0 0 0 0 1 0 1 0 0 1 1 0 0 1 1
   18       2    0 1 1 1 0 0 0 1 0 0 1 1 1 1 1 1 0 0 0 0 1 1 0 0 1 0 0 1 1 0 1 0 1 0 1 1 1 1 0 0 1 0 0 0 0 0 1 1 1 1 1
    0       0    0 1 0 1 1 1 0 1 1 1 0 0 1 1 1 0 0 1 0 1 0 1 0 0 1 1 0 0 0 0 0 0 0 1 0 0 1 0 0 0 0 1 1 0 1 0 0 1 1 1 1
    1       1    0 1 0 0 0 0 1 0 0 1 0 0 0 0 0 0 1 0 0 1 1 0 0 1 1
   19       2    0 1 1 1 0 0 0 1 0 0 1 1 0 1 1 0 0 0 0 0 1 0 0 0 1 0 0 1 1 0 1 1 1 0 1 1 0 1 0 0 1 0 0 0 0 0 1 1 1 1 1
    0       0    0 1 0 1 1 1 0 1 1 1 1 1 1 1 1 0 0 1 1 1 0 1 0 0 1 1 0 0 0 0 0 0 0 1 0 0 1 0 1 0 0 1 1 0 1 0 0 1 1 1 1
    1       1    0 1 0 0 0 0 1 0 0 1 0 0 1 0 0 1 1 0 0 1 1 0 0 1 1
   20       2    0 1 1 1 0 0 0 1 0 0 1 1 0 1 1 0 0 0 0 0 1 1 0 0 1 0 1 1 1 0 1 1 1 0 1 1 0 1 0 0 1 0 0 0 0 0 1 1 1 1 1
    0       0    0 1 0 1 1 1 0 1 1 1 0 0 1 0 1 0 0 0 1 1 0 0 0 0 1 1 0 0 0 0 0 0 0 1 0 0 1 0 0 0 1 1 1 0 1 0 0 1 1 1 1
    1       1    0 1 0 0 0 0 1 0 0 1 0 0 1 0 0 0 1 0 0 1 1 0 0 1 1
   21       2    0 1 1 1 0 0 0 1 0 0 1 1 0 1 1 1 0 0 0 0 1 0 0 0 1 0 0 1 1 0 1 1 1 0 1 1 1 1 0 0 1 0 0 0 0 0 1 1 1 1 1
    0       0    0 1 0 1 0 1 0 0 1 1 0 0 1 1 1 0 0 1 1 1 0 0 0 0 1 1 0 0 0 0 0 0 0 1 0 0 1 0 0 0 0 1 1 0 1 0 0 1 1 1 1
    1       1    0 1 0 0 0 0 1 0 0 1 0 0 0 0 0 0 0 0 0 1 1 0 0 1 1
   22       2    0 1 1 1 0 0 0 1 0 0 1 1 0 1 1 1 0 0 0 0 1 1 0 0 1 0 0 1 1 0 1 1 0 0 1 1 0 1 0 0 1 0 0 0 0 0 1 1 1 1 1
    0       0    0 1 0 1 1 0 0 0 1 1 0 1 0 1 1 0 0 0 1 1 0 0 0 0 1 1 0 0 0 0 0 0 0 1 0 0 1 0 0 0 1 1 1 0 1 0 0 1 1 1 1
    1       1    0 1 0 0 0 0 1 0 0 1 0 0 0 0 1 0 1 0 0 1 1 0 0 1 1
   23       2    0 1 1 1 0 0 0 1 0 0 1 1 0 1 1 1 0 0 0 0 1 1 0 0 1 0 0 1 1 0 1 1 1 0 1 1 1 1 0 0 1 0 0 0 0 0 1 1 1 1 1
    0       0    0 1 0 1 1 1 0 1 0 1 0 0 1 0 1 0 0 1 1 1 0 0 0 0 1 1 0 0 0 0 0 0 0 1 0 1 1 0 0 0 0 1 1 0 1 0 0 1 1 1 1
    1       1    0 1 0 0 0 0 1 0 0 1 0 0 1 0 0 0 1 0 0 1 1 0 0 1 1
   24       2    0 1 1 1 0 0 0 1 0 0 1 1 0 1 1 1 0 0 0 0 1 1 0 0 1 0 0 1 0 1 1 0 1 1 1 0 1 1 0 0 1 0 0 0 0 0 1 1 1 1 1
    0       0    0 1 0 1 1 1 0 1 0 1 0 0 1 0 1 0 0 1 1 1 0 0 0 0 1 1 0 0 0 0 0 0 0 1 0 0 1 0 0 0 0 1 1 0 1 0 0 1 1 1 1
    1       1    0 1 0 0 0 0 1 0 0 1 0 0 0 0 0 0 1 0 0 1 1 0 0 1 1
   25       2    0 1 1 1 0 0 0 1 0 0 1 1 0 1 1 0 1 1 0 0 1 0 1 1 1 0 0 1 0 1 1 1 1 0 0 0 0 1 0 0 1 0 0 0 0 0 0 1 1 1 1
    0       0    0 1 0 0 1 1 0 0 0 1 1 0 1 0 1 0 0 0 0 1 0 0 0 1 1 1 0 0 0 0 0 0 0 1 1 1 1 0 0 0 0 1 1 0 1 0 0 1 1 1 1
    1       1    0 1 0 0 0 1 0 0 0 1 0 0 0 1 1 1 0 0 0 1 1 0 0 1 1
   26       2    0 1 1 1 0 0 0 1 0 0 1 1 0 0 1 0 0 0 1 0 1 1 1 0 1 0 0 1 1 1 1 0 1 0 1 1 1 1 0 0 1 0 0 0 0 0 1 1 1 1 1
    0       0    0 1 0 1 1 1 0 1 1 0 0 0 0 1 1 0 0 1 1 1 0 1 0 0 1 1 0 0 0 0 0 0 0 1 0 0 1 0 1 1 1 1 1 0 1 0 0 1 1 0 1
    1       1    0 1 0 0 0 1 0 0 0 1 1 0 0 0 0 1 1 0 0 1 1 0 0 1 1
   27       2    0 1 1 1 0 0 0 1 0 0 1 1 1 0 1 0 0 0 0 1 1 0 0 0 1 0 0 1 1 1 1 1 1 0 1 0 1 1 0 0 1 0 0 0 0 0 0 1 1 1 1
    0       0    0 1 1 0 1 1 0 1 1 1 1 0 0 1 1 0 0 0 1 1 0 0 1 0 1 1 0 0 0 0 0 0 0 1 1 1 1 0 0 0 1 1 1 0 1 0 0 1 1 1 1
    1       1    0 1 0 0 0 0 1 0 0 1 0 0 0 1 1 1 0 0 0 1 1 0 0 1 1
   28       2    0 1 1 1 0 0 0 1 0 0 1 1 0 0 0 0 0 0 0 0 1 1 0 0 1 0 0 1 1 1 0 1 1 0 1 1 1 1 0 0 1 0 0 0 0 1 1 1 1 1 1
    0       0    0 0 0 0 1 1 0 1 1 1 0 0 1 1 1 0 1 1 1 1 0 0 0 1 1 1 0 0 0 0 0 0 1 1 0 0 1 0 0 1 0 1 1 0 1 0 1 0 1 0 1
    1       1    0 1 0 0 0 0 0 0 0 1 1 0 0 1 0 1 0 0 0 1 1 0 0 1 1
   29       2    0 1 1 1 0 0 0 1 0 0 1 1 0 0 1 0 1 0 0 0 0 1 0 0 1 0 0 1 1 1 1 1 1 0 1 1 0 1 0 0 1 0 0 0 1 0 0 1 1 1 1
    0       0    0 1 0 1 1 1 1 1 1 1 0 0 1 1 1 0 1 0 0 1 0 1 0 0 1 1 0 0 0 0 0 0 0 1 0 1 1 0 0 0 1 1 1 0 1 0 0 1 1 1 1
    1       1    0 1 0 0 0 0 0 0 0 1 0 0 1 0 0 0 0 0 0 1 1 0 0 1 1
   30       2    0 1 1 1 0 0 0 1 0 0 1 1 0 0 1 0 0 0 1 0 1 0 0 0 1 0 0 1 1 1 0 0 1 0 1 0 1 1 0 0 1 0 0 0 0 0 1 1 1 1 1
    0       0    0 0 0 0 1 0 0 0 1 1 0 0 0 1 1 0 0 1 1 1 0 0 0 0 1 1 0 0 0 0 0 0 1 0 0 0 1 0 0 0 0 1 1 0 1 0 0 1 1 1 1
    1       1    0 1 0 0 1 0 0 0 1 1 0 0 1 1 1 1 1 0 0 1 1 0 0 1 1
   31       2    0 1 1 1 0 0 0 1 0 0 1 1 0 0 1 0 0 0 1 0 1 0 0 0 1 1 0 1 1 1 1 0 1 1 1 1 1 1 0 0 1 0 0 0 0 1 0 1 1 1 1
    0       0    0 0 0 1 1 0 0 0 1 1 0 0 0 1 1 0 0 1 1 1 0 1 0 0 1 1 0 0 0 0 0 0 0 0 0 1 1 0 0 0 0 1 1 0 1 0 0 1 1 0 1
    1       1    0 1 0 0 1 0 0 0 0 1 0 0 0 0 1 1 1 1 0 1 1 0 0 1 1
   32       2    0 1 1 1 0 0 0 1 0 0 1 1 0 1 1 0 1 1 0 0 1 0 0 1 1 0 0 1 0 1 1 1 1 0 0 1 1 1 0 0 1 0 0 0 0 0 0 1 1 1 1
    0       0    0 1 0 0 1 0 0 0 0 1 1 0 1 0 1 0 1 0 0 1 0 0 0 1 1 1 0 0 0 0 0 1 0 1 1 0 1 0 0 0 0 1 1 0 1 0 0 1 1 1 1
    1       1    0 1 0 0 0 1 0 1 0 1 0 0 0 1 0 1 1 0 0 1 1 0 0 1 1
   33       2    0 1 1 1 0 0 0 1 0 0 1 1 0 1 1 0 0 0 0 0 1 0 0 0 1 0 0 1 0 1 1 1 1 0 1 1 1 1 0 0 1 0 0 0 0 0 0 1 1 1 1
    0       0    0 1 0 1 1 1 0 0 0 1 1 0 0 1 1 0 0 0 0 1 0 0 0 0 1 1 0 0 0 0 0 0 0 1 0 1 1 0 0 0 0 1 1 0 1 0 0 1 1 1 1
    1       1    0 1 0 0 0 1 0 0 0 1 0 0 0 0 1 0 1 1 0 1 1 0 0 1 1
   34       2    0 1 1 1 0 0 0 1 0 0 1 1 0 0 1 0 0 1 0 0 1 0 0 0 1 0 0 1 0 1 1 1 1 0 0 1 1 1 0 0 1 0 0 0 0 0 0 1 1 1 1
    0       0    0 1 0 1 1 0 0 1 0 1 0 0 0 1 1 0 1 0 0 1 1 0 0 0 1 1 0 0 0 0 0 1 0 1 0 0 1 0 0 1 0 1 1 0 1 0 0 1 1 1 1
    1       1    0 1 0 0 0 1 0 0 0 1 0 1 0 0 0 1 1 0 0 1 1 0 0 1 1
   35       2    0 1 1 1 0 0 0 1 0 0 1 1 0 0 1 0 0 1 0 0 1 0 0 0 1 0 0 1 0 1 1 1 1 0 0 0 1 1 0 0 1 0 0 0 0 0 0 1 1 1 1
    0       0    0 1 0 1 1 0 0 0 0 1 1 0 0 1 1 0 0 0 0 1 0 0 0 0 1 1 0 0 0 0 0 0 0 1 0 0 1 0 0 1 0 1 1 0 1 0 0 1 1 1 1
    1       1    0 1 0 0 0 1 0 0 0 1 0 0 0 0 1 1 1 1 0 1 1 0 0 1 1
   36       2    0 1 1 1 0 0 0 1 0 0 1 1 0 1 1 0 0 1 0 0 1 0 0 0 1 0 0 1 0 1 1 1 1 0 1 1 1 1 0 0 1 0 0 0 0 0 0 1 1 1 1
    0       0    0 1 0 1 1 1 0 1 0 1 0 0 0 1 1 0 1 0 0 1 1 1 0 0 1 1 0 0 0 0 0 1 0 1 0 1 1 0 0 0 0 1 1 0 1 0 0 1 1 1 1
    1       1    0 1 0 0 0 1 0 0 0 1 0 1 0 0 0 0 1 0 0 1 1 0 0 1 1
   37       2    0 1 1 1 0 0 0 1 0 0 1 1 1 1 1 0 1 0 1 1 1 0 1 0 1 0 0 1 1 1 1 0 1 0 0 0 0 1 0 0 1 0 0 0 0 0 0 1 1 1 1
    0       0    0 1 0 1 1 1 0 0 1 1 1 0 1 1 1 0 0 0 0 1 0 0 0 1 1 1 0 0 0 0 0 0 0 1 1 1 1 0 0 0 0 1 1 0 1 0 0 1 1 1 1
    1       1    0 1 0 0 0 1 0 0 0 1 0 0 0 0 1 1 0 0 0 1 1 0 0 1 1
   38       2    0 1 1 1 0 0 0 1 0 0 1 1 1 1 1 0 0 0 1 1 1 0 0 0 1 0 0 1 1 1 1 0 1 0 1 1 1 1 0 0 1 0 0 0 0 0 0 1 1 1 1
    0       0    0 1 0 1 1 1 0 0 1 1 1 0 0 1 1 0 0 0 0 1 0 1 0 0 1 1 0 0 0 0 0 0 0 1 0 1 1 0 0 0 0 1 1 0 1 0 0 1 1 1 1
    1       1    0 1 0 0 0 1 0 0 0 1 0 0 0 0 1 0 1 1 0 1 1 0 0 1 1
   39       2    0 1 1 1 0 0 0 1 0 0 1 1 1 1 1 0 1 0 0 0 1 0 0 0 1 0 0 1 1 1 1 0 1 0 1 1 1 1 0 0 1 0 0 0 0 0 0 1 1 1 1
    0       0    0 1 0 1 1 1 0 1 1 1 0 0 0 1 1 0 0 1 1 1 0 0 0 0 1 1 0 0 0 0 0 0 0 1 0 0 1 0 0 0 1 1 1 0 1 0 0 1 1 1 1
    1       1    0 1 0 0 0 1 0 0 0 1 0 0 0 0 1 1 0 0 0 1 1 0 0 1 1
   40       2    0 1 1 1 0 0 0 1 0 0 1 1 0 1 1 0 0 1 0 0 1 0 0 0 1 0 0 1 1 1 1 1 1 0 1 1 0 1 0 0 1 0 0 0 0 0 0 1 1 1 1
    0       0    0 1 0 1 1 1 0 0 0 1 0 0 1 0 1 1 0 1 1 1 0 0 0 0 1 1 0 0 0 0 0 0 0 1 1 1 1 0 0 0 1 1 1 0 1 0 0 1 1 1 1
    1       1    0 1 0 0 0 1 0 0 1 1 0 0 0 1 1 1 1 0 0 1 1 0 0 1 1
   41       2    0 1 1 1 0 0 0 1 0 0 1 1 0 0 1 0 0 1 0 1 0 0 0 0 1 0 1 1 0 1 1 1 0 1 0 1 1 1 0 0 1 0 0 0 0 0 0 1 1 1 1
    0       0    0 1 0 1 1 1 0 0 0 1 0 0 1 1 1 0 0 0 0 1 0 0 0 0 1 1 0 0 0 0 0 0 0 1 0 1 1 0 0 1 0 1 1 0 1 0 0 1 1 1 1
    1       1    0 1 0 0 0 1 0 0 0 1 0 1 1 0 1 1 1 0 0 1 1 0 0 1 1
   42       2    0 1 1 1 0 0 0 1 0 0 1 1 0 1 1 1 0 0 0 0 1 0 0 0 1 0 0 1 1 1 1 0 0 0 1 1 1 1 0 0 1 0 0 0 0 0 0 1 1 1 1
    0       0    0 1 1 0 1 0 0 1 1 1 0 1 0 1 1 0 0 0 1 1 0 1 0 0 1 1 0 0 0 0 0 0 0 1 0 0 1 0 0 0 1 1 1 0 1 0 0 1 1 1 1
    1       1    0 1 0 0 0 0 1 1 0 1 0 0 0 0 1 1 0 0 0 1 1 0 0 1 1
   43       2    0 1 1 1 0 0 0 1 0 0 1 1 0 1 1 0 0 0 0 0 1 0 0 0 1 0 0 1 1 1 1 0 1 0 1 1 1 1 0 0 1 0 0 0 0 0 0 1 1 1 1
    0       0    0 1 1 0 1 1 0 1 1 1 0 0 1 1 1 0 0 0 1 1 0 1 0 0 1 1 0 0 0 0 0 0 0 1 0 0 1 0 0 0 1 1 1 0 1 0 0 1 1 1 1
    1       1    0 1 0 0 0 0 1 1 0 1 0 0 1 0 1 1 0 0 0 1 1 0 0 1 1
   44       2    0 1 1 1 0 0 0 1 0 0 1 1 1 1 1 0 0 0 0 1 1 0 0 0 1 0 0 1 1 1 1 0 1 0 1 1 1 1 0 0 1 0 0 0 0 0 0 1 1 1 1
    0       0    0 1 1 1 1 1 0 1 1 1 1 1 0 1 1 0 0 0 1 1 0 0 0 0 1 1 0 0 0 0 0 0 0 1 0 0 1 0 0 0 1 1 1 0 1 0 0 1 1 1 1
    1       1    0 1 0 0 0 0 1 0 0 1 0 0 0 0 1 1 1 0 0 1 1 0 0 1 1
   45       2    0 1 1 1 0 0 0 1 0 0 1 1 1 1 1 0 0 0 0 0 1 0 0 0 1 0 0 1 1 1 1 0 1 0 1 1 1 1 0 0 1 0 0 0 0 0 0 1 1 1 1
    0       0    0 1 1 1 1 1 0 1 1 1 0 0 0 0 1 0 0 1 1 1 0 0 0 0 1 1 0 0 0 0 0 0 0 1 0 0 1 0 0 0 1 1 1 0 1 0 0 1 1 1 1
    1       1    0 1 0 0 0 0 1 0 0 1 0 0 1 0 1 0 1 0 0 1 1 0 0 1 1
   46       2    0 1 1 1 0 0 0 1 0 0 1 1 0 1 1 0 1 0 0 0 1 1 0 0 1 0 0 1 1 1 1 1 0 0 1 1 1 1 0 0 1 0 0 0 0 0 0 1 1 1 1
    0       0    0 1 1 1 1 0 0 0 1 1 0 1 1 1 1 0 0 0 1 1 0 0 0 0 1 1 0 0 0 0 0 0 0 1 0 0 1 0 0 0 1 1 1 0 1 0 0 1 1 1 1
    1       1    0 1 0 0 0 0 1 0 0 1 0 0 0 0 1 1 0 0 0 1 1 0 0 1 1
   47       2    0 1 1 1 0 0 0 1 0 0 1 1 1 1 1 0 0 0 0 0 1 0 0 0 1 0 1 1 1 1 1 0 1 0 1 1 1 1 0 0 1 0 0 0 0 0 0 1 1 1 1
    0       0    0 1 1 1 1 1 0 1 0 1 0 1 0 1 1 0 0 0 1 1 1 0 0 0 1 1 0 0 0 0 0 0 0 1 0 0 1 0 0 0 1 1 1 0 1 0 0 1 1 1 1
    1       1    0 1 0 0 0 0 1 0 0 1 0 0 0 0 1 0 1 0 0 1 1 0 0 1 1
   48       2    0 1 1 1 0 0 0 1 0 0 1 1 0 0 1 0 0 0 0 0 1 0 0 0 1 1 0 1 1 1 0 0 1 0 1 0 1 1 0 0 1 0 0 0 0 0 0 1 1 1 1
    0       0    0 0 1 1 1 0 0 1 1 1 0 0 0 1 1 0 0 1 1 1 0 0 0 1 1 1 0 0 0 0 0 1 1 0 0 0 1 0 0 0 0 1 1 0 1 0 0 1 1 0 1
    1       1    0 1 0 0 1 0 0 0 1 1 0 0 1 1 1 1 1 0 0 1 1 0 0 1 1
   49       2    0 1 1 1 0 0 0 1 0 0 1 1 1 1 1 0 1 0 0 0 1 0 1 0 1 0 0 1 1 1 1 1 1 0 1 1 1 1 0 0 1 0 0 0 0 0 0 1 1 1 1
    0       0    0 1 1 1 1 1 0 0 1 1 0 0 0 1 1 0 0 1 1 1 0 0 0 0 1 1 0 0 0 0 0 0 0 1 0 0 1 0 0 0 1 1 1 0 1 0 0 1 1 0 1
    1       1    0 1 0 0 0 1 0 0 0 1 0 0 0 0 1 1 0 0 0 1 1 0 0 1 1
   50       2    0 1 1 1 0 0 0 1 0 0 1 1 1 1 1 0 1 0 0 0 1 1 0 0 1 0 0 1 1 1 1 0 1 0 1 1 0 1 0 0 1 0 0 0 0 0 0 1 1 1 1
    0       0    0 1 1 1 1 1 0 0 1 1 0 0 1 1 1 0 0 1 1 1 0 0 0 0 1 1 0 0 0 0 0 0 0 1 0 0 1 0 0 0 1 1 1 0 1 0 0 1 1 0 1
    1       1    0 1 0 0 0 1 0 0 0 1 0 0 0 0 1 1 1 0 0 1 1 0 0 1 1
   51       2    0 1 1 1 0 0 0 1 0 0 1 1 1 1 1 0 1 0 0 1 1 0 1 0 1 0 0 1 1 1 1 0 1 0 0 1 0 1 0 0 1 0 0 0 0 0 0 1 1 1 1
    0       0    0 1 1 1 1 1 0 0 1 1 0 0 1 1 1 0 0 0 1 1 0 0 0 0 1 1 0 0 0 0 0 0 0 1 1 0 1 0 0 0 0 1 1 0 1 0 0 1 1 0 1
    1       1    0 1 0 0 0 1 0 0 0 1 0 0 0 0 1 1 1 0 0 1 1 0 0 1 1
   52       2    0 1 1 1 0 0 0 1 0 0 1 1 0 0 1 0 1 0 0 0 1 1 1 0 1 0 0 1 0 1 1 1 1 0 0 1 1 1 0 0 1 0 0 0 1 0 0 1 1 1 1
    0       0    1 1 0 1 1 1 1 1 1 1 0 0 1 1 1 0 1 0 0 1 0 0 0 0 1 1 0 0 0 0 0 0 0 1 0 1 1 0 0 1 1 1 1 0 1 0 0 0 1 1 1
    1       1    0 1 0 0 0 0 0 0 0 1 0 0 0 0 1 1 0 0 0 1 1 0 0 1 1
   53       2    0 1 1 1 0 0 0 1 0 0 1 1 1 0 1 0 0 0 0 1 1 0 0 0 1 0 0 1 1 1 0 1 1 0 1 0 1 1 0 0 1 0 0 0 0 0 1 1 1 1 1
    0       0    1 1 1 0 1 1 0 1 1 1 1 0 1 1 1 0 0 1 1 1 0 0 0 1 1 1 0 0 0 0 0 0 0 1 0 1 1 0 0 0 1 1 1 0 1 0 0 0 1 1 1
    1       1    0 1 0 0 0 0 1 0 0 1 0 0 1 1 1 1 0 0 0 1 1 0 0 1 1
   54       2    0 1 1 1 0 0 0 1 0 0 1 1 0 1 1 1 1 0 0 0 1 0 0 0 1 0 0 1 0 1 1 1 0 0 0 1 1 1 0 0 0 0 1 1 0 0 1 1 1 1 1
    0       1    0 1 0 1 1 0 0 1 0 0 0 0 1 1 1 0 0 0 0 1 0 0 0 0 1 1 0 0 0 0 0 0 1 1 0 0 1 0 1 1 0 1 1 0 1 0 1 1 1 1 1
    1       1    0 1 0 0 1 0 1 1 1 1 0 0 0 1 0 1 1 0 0 1 1 0 0 1 1
   8800000.00000000        1618033.00000000       0.000000000000000E+000
  1.136363636363636E-007   5861189.00000000        6524285.00000000     
           1          24          55
   5443264.00000000        2792365.00000000        8744929.00000000     
   1266793.00000000        8067419.00000000        5585328.00000000     
   1150544.00000000        1091111.00000000        1962073.00000000     
   7766106.00000000        5473511.00000000        4007770.00000000     
   4630118.00000000        7990991.00000000        2509291.00000000     
   7262383.00000000        8799853.00000000        6461314.00000000     
   3895903.00000000        8243445.00000000        4375736.00000000     
   6847336.00000000        1699487.00000000        5861189.00000000     
   7719932.00000000        1606326.00000000        2975445.00000000     
   6766539.00000000        1366155.00000000        5432547.00000000     
   5014931.00000000        7953585.00000000        1825001.00000000     
   436133.000000000        995225.000000000        3341816.00000000     
   1251554.00000000        1519490.00000000        7400096.00000000     
   5501728.00000000        1155670.00000000        6278824.00000000     
   3310180.00000000        2200443.00000000        3340258.00000000     
   2156061.00000000        3486776.00000000        2981103.00000000     
   5449.00000000000        4710460.00000000        8421742.00000000     
   1003688.00000000        4544423.00000000        2888489.00000000     
   5593515.00000000     
   8800000.00000000        1618033.00000000       0.000000000000000E+000
  1.136363636363636E-007   8650379.00000000        1667309.00000000     
           1          24          55
   3846392.00000000        3405899.00000000        6544841.00000000     
   8422189.00000000        5828171.00000000        4673052.00000000     
   5563290.00000000        530721.000000000        5758373.00000000     
   2271512.00000000        4247505.00000000        1569678.00000000     
   8672286.00000000        7765889.00000000        2606205.00000000     
   1046101.00000000        1280217.00000000        8262590.00000000     
   8018979.00000000        1234741.00000000        2135076.00000000     
   2653890.00000000        1300471.00000000        8650379.00000000     
   326312.000000000        8121714.00000000        7113853.00000000     
   3630205.00000000        8168779.00000000        2713731.00000000     
   3048019.00000000        8102693.00000000        6260123.00000000     
   7534227.00000000        1988133.00000000        8192920.00000000     
   8435928.00000000        5017668.00000000        4975578.00000000     
   4539522.00000000        4326342.00000000        1603518.00000000     
   515188.000000000        6456139.00000000        5168612.00000000     
   5513565.00000000        5424514.00000000        8312631.00000000     
   1697233.00000000        6531138.00000000        6057462.00000000     
   7642608.00000000        2848117.00000000        2702501.00000000     
   782167.000000000     
   8800000.00000000        1618033.00000000       0.000000000000000E+000
  1.136363636363636E-007   5757405.00000000        2512077.00000000     
           1          30           6
   4087755.00000000        6542493.00000000        3110809.00000000     
   3436966.00000000        4325113.00000000        7235133.00000000     
   4365566.00000000        1925680.00000000        6978251.00000000     
   4916326.00000000        3435296.00000000        886114.000000000     
   2370913.00000000        8654606.00000000        1548825.00000000     
   8225880.00000000        6415577.00000000        5307568.00000000     
   6786684.00000000        3609998.00000000        172646.000000000     
   3990856.00000000        3646859.00000000        3134567.00000000     
   3791743.00000000        8508145.00000000        2934060.00000000     
   2292388.00000000        2156437.00000000        5757405.00000000     
   863719.000000000        5735639.00000000        8481563.00000000     
   7888634.00000000        8716238.00000000        8127223.00000000     
   3203947.00000000        7576131.00000000        984293.000000000     
   4436814.00000000        6897963.00000000        5630420.00000000     
   6141972.00000000        301211.000000000        1558570.00000000     
   5746633.00000000        7991096.00000000        6509710.00000000     
   8441265.00000000        2176010.00000000        3947660.00000000     
   1825943.00000000        7455436.00000000        359930.000000000     
   2051220.00000000     
