          72          54   1.00000000000000     
    1       2    0 1 1 1 0 0 0 1 0 0 1 1 0 1 0 0 0 0 0 0 0 1 1 0 1 0 0 1 0 1 1 1 1 0 1 0 1 1 0 0 1 0 0 1 0 0 0 1 1 1 1
    0       0    0 0 0 1 1 1 0 0 1 1 1 0 0 0 1 0 0 1 1 0 1 0 0 1 1 1 0 0 0 0 0 1 1 1 0 0 1 0 0 0 0 1 1 0 1 0 0 0 1 0 1
    1       1    0 1 0 0 1 0 0 1 0 1 0 0 0 0 1 1 0 1 0 1 1 0 0 1 1
    2       2    0 1 1 1 0 0 0 1 0 0 1 1 0 1 0 0 0 0 0 0 0 1 1 0 1 1 0 1 1 1 1 1 1 1 1 0 1 1 0 0 1 0 0 1 0 0 0 1 1 1 1
    0       0    0 0 0 1 1 1 0 0 1 1 1 0 0 1 1 0 1 1 1 0 1 0 0 1 1 1 0 0 0 0 0 1 1 1 1 0 0 0 0 0 0 1 1 0 1 0 0 0 1 0 1
    1       1    0 1 0 0 1 0 0 1 0 1 0 0 0 0 1 1 0 1 0 1 1 0 0 1 1
    3       2    0 1 1 1 0 0 0 1 0 0 1 1 0 1 0 0 0 0 0 0 0 1 1 0 1 0 0 1 0 1 1 1 1 0 1 0 1 1 0 0 1 0 0 1 0 0 0 1 1 1 1
    0       0    0 0 0 1 1 1 0 0 1 1 1 0 0 0 1 0 0 1 1 0 1 1 0 1 1 1 0 0 0 0 0 1 1 1 0 0 1 0 0 0 0 1 1 0 1 0 0 0 1 0 1
    1       1    0 1 0 0 1 0 0 1 0 1 0 0 0 0 1 1 0 1 0 1 1 0 0 1 1
    4       2    0 1 1 1 0 0 0 1 0 0 1 1 0 1 0 0 0 0 0 0 0 1 1 0 1 0 0 1 1 1 1 1 1 0 1 0 1 1 0 0 1 0 0 1 0 0 0 1 1 1 1
    0       0    0 0 0 1 1 1 0 0 1 1 1 0 0 1 1 0 0 1 1 0 1 0 0 1 1 1 0 0 0 0 0 1 1 1 0 0 1 1 0 0 0 1 1 0 1 0 0 0 1 0 1
    1       1    0 1 0 0 1 0 0 1 0 1 0 0 0 0 1 1 0 1 0 1 1 0 0 1 1
    5       2    0 1 1 1 0 0 0 1 0 0 1 1 0 1 0 0 0 0 0 0 0 1 1 0 1 1 0 1 0 1 1 1 1 1 1 0 1 1 0 0 1 0 0 1 0 0 0 1 1 1 1
    0       0    0 0 0 1 1 1 0 0 1 1 1 0 0 0 1 0 1 1 1 0 1 1 0 1 1 1 0 0 0 0 0 1 1 1 0 0 0 0 0 0 0 1 1 0 1 0 0 0 1 0 1
    1       1    0 1 0 0 1 0 0 1 0 1 0 0 0 0 1 1 0 1 0 1 1 0 0 1 1
    6       2    0 1 1 1 0 0 0 1 0 0 1 1 0 0 1 0 0 0 0 0 1 0 0 0 1 1 0 1 1 1 1 0 1 0 1 0 1 1 0 0 1 0 0 0 0 1 1 1 1 1 1
    0       0    0 1 0 1 1 1 0 0 1 0 0 0 1 0 1 0 0 1 1 1 0 1 0 0 1 1 0 0 0 0 0 0 0 1 0 0 1 0 1 0 1 1 1 0 1 0 0 1 1 1 0
    1       1    0 1 0 0 0 0 0 1 1 1 0 0 0 0 0 1 1 0 0 1 1 0 0 1 1
    7       2    0 1 1 1 0 0 0 1 0 0 1 1 0 1 1 0 0 0 0 0 1 0 0 0 1 0 0 1 1 1 1 1 1 0 1 0 1 1 0 0 1 0 0 0 0 1 1 1 1 1 1
    0       0    0 1 0 1 1 1 0 0 1 0 1 0 1 1 1 0 1 1 1 1 0 1 0 0 1 1 0 0 0 0 0 0 1 1 0 0 1 0 1 0 0 1 1 0 1 0 0 1 1 1 0
    1       1    0 1 0 0 0 0 0 1 1 1 0 0 0 0 0 1 1 1 0 1 1 0 0 1 1
    8       2    0 1 1 1 0 0 0 1 0 0 1 1 0 1 1 0 0 0 1 0 1 1 1 0 1 0 0 1 1 1 1 1 1 0 1 1 1 1 0 0 1 0 0 0 0 1 0 1 1 1 1
    0       0    0 1 0 1 1 1 0 0 1 1 0 0 1 1 1 0 1 1 1 1 0 1 0 0 1 1 0 0 0 0 0 0 0 1 0 0 1 0 0 0 1 1 1 0 1 0 0 1 1 1 1
    1       1    0 1 0 0 0 0 0 1 1 1 0 0 0 0 1 0 1 0 0 1 1 0 0 1 1
    9       2    0 1 1 1 0 0 0 1 0 0 1 1 1 1 1 0 0 0 0 1 1 0 0 0 1 1 0 1 1 1 0 0 1 0 1 1 1 1 0 0 1 0 0 0 0 1 0 1 1 1 1
    0       0    0 1 0 0 1 1 0 0 0 1 0 0 1 1 1 0 0 1 1 1 0 0 0 0 1 1 0 0 0 0 0 0 0 1 0 0 1 0 0 0 0 1 1 0 1 0 0 1 1 1 0
    1       1    0 1 0 0 0 0 1 1 1 1 0 0 1 1 1 1 1 1 0 1 1 0 0 1 1
   10       2    0 1 1 1 0 0 0 1 0 0 1 1 1 1 1 0 0 0 0 1 1 0 0 0 1 1 0 1 1 1 1 1 1 0 1 1 1 1 0 0 1 0 0 0 0 1 0 1 1 1 1
    0       0    0 1 0 0 1 1 0 0 0 1 0 0 1 1 1 0 1 1 1 1 0 1 0 0 1 1 0 0 0 0 0 0 0 1 0 1 1 0 0 0 0 1 1 0 1 0 0 1 1 1 0
    1       1    0 1 0 0 0 0 1 1 1 1 0 0 0 1 0 1 1 1 0 1 1 0 0 1 1
   11       2    0 1 1 1 0 0 0 1 0 0 1 1 0 1 1 0 0 0 0 0 1 1 0 0 1 0 0 1 1 0 1 1 1 0 1 0 1 1 0 0 1 0 0 0 0 0 1 1 1 1 1
    0       0    0 0 0 1 1 1 0 1 1 0 0 0 1 1 1 0 0 1 1 1 0 1 0 0 1 1 0 0 0 0 0 0 0 1 1 0 1 0 0 0 1 1 1 0 1 0 0 1 1 1 1
    1       1    0 1 0 0 0 1 1 0 0 1 0 0 0 0 1 1 1 0 0 1 1 0 0 1 1
   12       2    0 1 1 1 0 0 0 1 0 0 1 1 0 1 1 1 0 0 0 0 1 1 0 0 1 0 0 1 1 0 1 0 0 0 1 1 1 1 0 0 1 0 0 0 0 0 1 1 1 1 1
    0       0    0 1 0 1 1 1 0 1 1 1 0 1 1 1 1 0 0 1 1 1 0 0 0 0 1 1 0 0 0 0 0 0 0 1 0 0 1 0 0 0 1 1 1 0 1 0 0 1 1 1 1
    1       1    0 1 0 0 0 0 1 0 0 1 0 0 0 0 1 1 0 0 0 1 1 0 0 1 1
   13       2    0 1 1 1 0 0 0 1 0 0 1 1 0 1 1 0 0 0 0 0 1 1 0 0 1 1 0 1 1 0 1 1 1 0 1 1 0 1 0 0 1 0 0 0 0 0 1 1 1 1 1
    0       0    0 1 0 1 1 1 0 1 1 1 0 0 1 1 1 0 0 1 1 1 0 0 0 0 1 1 0 0 0 0 0 0 0 1 0 0 1 0 0 0 1 1 1 0 1 0 0 1 1 1 1
    1       1    0 1 0 0 0 0 1 0 0 1 0 0 1 0 1 0 1 0 0 1 1 0 0 1 1
   14       2    0 1 1 1 0 0 0 1 0 0 1 1 0 1 1 0 0 0 0 0 1 1 0 0 1 0 0 1 1 1 1 1 1 0 1 1 1 1 0 0 1 0 0 0 0 0 1 1 1 1 1
    0       0    0 1 0 1 1 1 0 1 1 1 0 1 0 1 1 0 0 1 1 1 0 0 0 0 1 1 0 0 0 0 0 0 0 1 0 0 1 0 1 0 1 1 1 0 1 0 0 1 1 1 1
    1       1    0 1 0 0 0 0 1 0 0 1 0 0 1 0 1 1 1 0 0 1 1 0 0 1 1
   15       2    0 1 1 1 0 0 0 1 0 0 1 1 0 1 1 1 0 0 1 0 1 1 0 0 1 1 0 1 1 0 1 0 1 0 1 0 1 1 0 0 1 0 0 0 0 0 1 1 1 1 1
    0       0    0 1 0 1 1 1 0 0 1 1 0 1 1 1 1 0 0 1 0 1 0 0 0 1 1 1 0 0 0 0 0 0 0 1 0 0 1 0 0 0 1 1 1 0 1 0 0 1 1 1 1
    1       1    0 1 0 0 0 0 1 0 0 1 1 0 0 0 1 1 0 0 0 1 1 0 0 1 1
   16       2    0 1 1 1 0 0 0 1 0 0 1 1 0 0 1 1 0 0 0 0 1 1 0 0 1 0 0 1 1 0 1 0 0 0 1 1 1 1 0 0 1 0 0 0 0 0 1 1 1 1 1
    0       0    0 1 0 1 1 1 0 1 1 1 0 1 1 1 1 0 0 1 1 1 0 0 0 0 1 1 0 0 0 0 0 0 0 1 0 0 1 0 0 0 1 1 1 0 1 0 0 1 1 1 1
    1       1    0 1 0 0 0 0 1 0 0 1 0 0 0 0 1 1 0 0 0 1 1 0 0 1 1
   17       2    0 1 1 1 0 0 0 1 0 0 1 1 0 0 1 0 0 0 0 0 1 1 0 0 1 1 0 1 1 0 1 1 1 0 1 0 1 1 0 0 1 0 0 0 0 0 1 1 1 1 1
    0       0    0 1 0 1 1 1 0 1 1 1 0 0 1 1 1 0 0 1 1 1 0 0 0 0 1 1 0 0 0 0 0 0 0 1 0 0 1 0 0 0 1 1 1 0 1 0 0 1 1 1 1
    1       1    0 1 0 0 0 0 1 0 0 1 1 0 0 0 1 0 1 0 0 1 1 0 0 1 1
   18       2    0 1 1 1 0 0 0 1 0 0 1 1 0 1 1 1 0 0 0 0 1 1 0 0 1 0 0 1 1 0 1 0 0 0 1 1 1 1 0 0 1 0 0 0 0 0 1 1 1 1 1
    0       0    0 1 0 1 1 1 0 1 1 1 0 1 1 1 1 0 0 1 1 1 0 0 0 0 1 1 0 0 0 0 0 0 0 1 0 0 0 0 0 0 1 1 1 0 1 0 0 1 1 1 1
    1       1    0 1 0 0 0 0 1 0 0 1 0 0 0 0 1 1 0 0 0 1 1 0 0 1 1
   19       2    0 1 1 1 0 0 0 1 0 0 1 1 0 1 1 1 0 0 1 0 1 1 0 0 1 1 0 1 1 0 1 0 1 0 1 0 1 1 0 0 1 0 0 0 0 0 1 1 1 1 1
    0       0    0 1 0 1 1 1 0 0 1 1 0 0 1 1 1 0 0 1 1 1 0 0 0 1 1 1 0 0 0 0 0 0 0 1 0 0 0 0 0 0 1 1 1 0 1 0 0 1 1 1 1
    1       1    0 1 0 0 0 0 1 0 1 1 0 0 0 0 1 1 0 1 0 1 1 0 0 1 1
   20       2    0 1 1 1 0 0 0 1 0 0 1 1 0 1 1 0 0 0 0 0 1 1 0 0 1 0 0 1 1 0 1 1 1 0 1 1 1 1 0 0 1 0 0 0 0 0 1 1 1 1 1
    0       0    0 1 0 1 1 1 0 1 1 1 0 0 0 1 1 0 0 1 1 1 0 1 0 0 1 1 0 0 0 0 0 0 0 1 1 0 1 0 0 0 1 1 1 0 1 0 0 1 1 1 1
    1       1    0 1 0 0 0 0 1 0 0 1 0 0 0 0 1 1 0 0 0 1 1 0 0 1 1
   21       2    0 1 1 1 0 0 0 1 0 0 1 1 0 1 1 1 0 0 0 1 1 1 0 0 1 1 0 1 1 0 1 1 1 0 1 1 1 1 0 0 1 0 0 0 0 0 1 1 1 1 1
    0       0    0 1 0 1 1 1 0 1 1 1 0 0 1 1 1 0 0 1 0 0 0 0 0 0 1 1 0 0 0 0 0 0 0 1 0 0 1 0 0 0 1 1 1 0 1 0 0 1 1 1 1
    1       1    0 1 0 0 0 0 1 0 0 1 0 0 0 0 0 1 0 0 0 1 1 0 0 1 1
   22       2    0 1 1 1 0 0 0 1 0 0 1 1 0 1 1 1 0 0 0 0 1 1 0 0 1 1 0 1 1 0 1 1 1 0 1 1 1 1 0 0 1 0 0 0 0 0 1 1 1 1 1
    0       0    0 1 0 1 1 1 0 1 1 1 0 0 1 1 1 0 0 0 1 1 0 0 0 0 1 1 0 0 0 0 0 0 0 1 0 0 1 0 0 0 1 1 1 0 1 0 0 1 1 1 1
    1       1    0 1 0 0 0 0 1 0 0 1 0 0 1 0 1 0 1 0 0 1 1 0 0 1 1
   23       2    0 1 1 1 0 0 0 1 0 0 1 1 0 1 0 1 0 0 1 0 1 1 0 0 1 0 0 1 1 0 1 0 1 0 1 1 1 1 0 0 1 0 0 0 0 0 1 1 1 1 1
    0       0    0 1 0 1 1 1 0 0 1 1 0 1 1 1 1 0 0 1 1 1 0 0 0 0 1 1 0 0 0 0 0 0 0 1 0 0 1 0 0 0 1 1 1 0 1 0 0 1 1 1 1
    1       1    0 1 0 0 0 0 1 0 0 1 1 0 0 0 1 1 0 0 0 1 1 0 0 1 1
   24       2    0 1 1 1 0 0 0 1 0 0 1 1 0 0 1 1 0 0 0 0 1 1 0 0 1 0 0 1 1 0 1 0 0 0 1 1 1 1 0 0 1 0 0 0 0 0 1 1 1 1 1
    0       0    0 1 0 1 1 1 0 0 1 1 0 1 1 1 1 0 0 1 1 1 0 0 0 0 1 1 0 0 0 0 0 0 0 1 0 0 1 0 0 0 1 1 1 0 1 0 0 1 1 1 1
    1       1    0 1 0 0 0 0 1 0 0 1 0 0 0 0 1 1 0 0 0 1 1 0 0 1 1
   25       2    0 1 1 1 0 0 0 1 0 0 1 1 0 1 1 1 0 0 0 0 1 1 0 0 1 1 0 1 1 0 1 0 1 0 1 1 0 1 0 0 1 0 0 0 0 0 1 1 1 1 1
    0       0    0 1 0 1 1 1 0 0 1 1 0 0 1 1 1 0 0 1 1 1 0 0 0 0 1 1 0 0 0 0 0 0 0 1 0 0 1 0 0 0 1 1 1 0 1 0 0 1 1 1 1
    1       1    0 1 0 0 0 0 1 0 1 1 0 0 0 0 1 1 0 1 0 1 1 0 0 1 1
   26       2    0 1 1 1 0 0 0 1 0 0 1 1 0 1 1 0 0 0 1 0 1 1 0 0 1 1 0 1 1 0 1 1 1 0 1 0 1 1 0 0 1 0 0 0 0 0 1 1 1 1 1
    0       0    0 1 0 1 1 1 0 1 1 1 0 0 1 1 1 0 0 1 1 1 0 0 0 1 1 1 0 0 0 0 0 0 0 0 0 0 0 1 0 0 1 1 1 0 1 0 0 1 1 1 1
    1       1    0 1 0 0 0 0 1 0 0 1 0 0 1 0 1 1 1 0 0 1 1 0 0 1 1
   27       2    0 1 1 1 0 0 0 1 0 0 1 1 0 1 1 1 0 0 0 1 1 1 0 0 1 1 0 1 1 0 1 1 1 0 0 0 1 1 0 0 1 0 0 0 0 0 1 1 1 1 1
    0       0    0 1 0 1 1 1 0 0 1 1 1 0 1 1 1 0 0 1 1 1 0 0 0 0 1 1 0 0 0 0 0 0 0 1 0 0 1 0 0 0 0 1 1 0 1 0 0 1 1 1 1
    1       1    0 1 0 0 0 0 1 0 1 1 0 0 0 0 1 1 1 0 0 1 1 0 0 1 1
   28       2    0 1 1 1 0 0 0 1 0 0 1 1 1 1 1 0 0 0 0 1 1 0 0 0 1 1 0 1 1 0 1 0 1 0 1 1 1 1 0 0 1 0 0 0 0 0 1 1 1 1 1
    0       0    0 1 0 1 1 0 0 1 0 1 1 1 1 1 1 0 0 1 1 1 0 0 0 0 1 1 0 0 0 0 0 0 0 1 0 0 1 0 0 0 1 1 1 0 1 0 0 1 1 1 1
    1       1    0 1 0 0 0 0 1 0 0 1 0 0 1 0 1 1 1 0 0 1 1 0 0 1 1
   29       2    0 1 1 1 0 0 0 1 0 0 1 1 0 1 1 1 0 0 0 0 1 1 0 0 1 0 0 1 1 0 1 0 0 0 1 1 1 1 0 0 1 0 0 0 0 0 1 1 1 1 1
    0       0    0 1 0 1 1 1 0 1 1 1 0 1 1 1 1 0 0 1 1 1 0 0 0 0 1 1 0 0 0 0 0 0 0 1 0 0 1 0 0 0 1 1 1 0 1 0 0 1 1 1 1
    1       1    0 1 0 0 0 0 1 0 0 1 0 0 0 0 1 1 0 0 0 1 1 0 0 1 1
   30       2    0 1 1 1 0 0 0 1 0 0 1 1 0 0 1 0 0 0 0 0 1 1 0 0 0 0 0 1 1 0 1 1 1 0 1 0 0 1 0 0 1 0 0 0 0 0 1 1 1 1 1
    0       0    0 1 0 1 1 1 0 0 1 1 0 0 0 1 1 0 0 1 1 1 0 0 0 0 1 1 0 0 0 0 0 0 0 1 0 0 1 0 0 0 0 1 1 0 1 0 0 1 1 1 1
    1       1    0 1 0 0 0 0 1 0 1 1 0 0 0 0 1 1 1 1 0 1 1 0 0 1 1
   31       2    0 1 1 1 0 0 0 1 0 0 1 1 0 0 1 1 0 0 0 0 1 1 0 0 1 0 0 1 1 0 1 0 0 0 1 1 1 1 0 0 1 0 0 0 0 0 1 1 1 1 1
    0       0    0 1 0 1 1 1 0 0 1 1 0 0 1 1 1 0 0 1 1 1 0 0 0 1 1 1 0 0 0 0 0 0 0 1 0 0 0 0 0 0 1 1 1 0 1 0 0 1 1 1 1
    1       1    0 1 0 0 0 0 1 0 1 1 0 0 0 0 1 1 0 1 0 1 1 0 0 1 1
   32       2    0 1 1 1 0 0 0 1 0 0 1 1 0 0 1 0 0 0 0 0 1 1 0 0 1 0 0 1 1 1 1 0 1 0 1 1 1 1 0 0 1 0 0 0 0 0 1 1 1 1 1
    0       0    0 1 0 1 1 1 0 1 1 1 0 0 0 1 1 0 0 1 1 1 0 0 0 0 1 1 0 0 0 0 0 0 0 1 0 0 1 0 1 0 1 1 1 0 1 0 0 1 1 1 1
    1       1    0 1 0 0 0 0 1 0 0 1 0 0 0 0 1 1 0 0 0 1 1 0 0 1 1
   33       2    0 1 1 1 0 0 0 1 0 0 1 1 0 0 1 1 0 0 0 0 1 1 0 0 1 0 0 1 1 0 1 0 0 0 1 1 1 1 0 0 1 0 0 0 0 0 1 1 1 1 1
    0       0    0 1 0 1 1 1 0 0 1 1 0 0 1 1 1 0 0 1 1 1 0 1 0 0 1 1 0 0 0 0 0 0 0 1 0 0 1 0 1 0 1 1 1 0 1 0 0 1 1 1 1
    1       1    0 1 0 0 0 0 1 0 0 1 0 0 0 0 1 1 0 0 0 1 1 0 0 1 1
   34       2    0 1 1 1 0 0 0 1 0 0 1 1 0 1 1 1 0 0 0 1 1 1 0 0 1 1 0 1 0 0 0 1 1 0 0 0 1 1 0 0 1 0 0 0 0 0 1 1 1 1 1
    0       0    0 1 0 1 1 1 0 0 1 1 1 0 1 1 1 0 0 1 1 1 0 0 0 0 1 1 0 0 0 0 0 0 0 1 0 0 1 0 0 0 0 1 1 0 1 0 0 1 1 1 1
    1       1    0 1 0 0 0 0 1 0 1 1 0 0 0 0 1 1 1 0 0 1 1 0 0 1 1
   35       2    0 1 1 1 0 0 0 1 0 0 1 1 0 1 1 1 0 0 0 0 1 1 0 0 1 1 0 1 1 0 1 1 1 0 1 1 0 1 0 0 1 0 0 0 0 0 1 1 1 1 1
    0       0    0 1 0 1 1 0 0 1 1 1 0 0 1 1 1 0 0 0 1 1 0 0 0 0 1 1 0 0 0 0 0 0 0 1 0 0 1 0 0 0 1 1 1 0 1 0 0 1 1 1 1
    1       1    0 1 0 0 0 0 1 0 0 1 0 0 1 0 1 0 1 0 0 1 1 0 0 1 1
   36       2    0 1 1 1 0 0 0 1 0 0 1 1 0 1 1 0 0 0 0 0 1 1 0 0 1 0 0 0 1 0 1 0 1 0 1 1 1 1 0 0 1 0 0 0 0 0 1 1 1 1 1
    0       0    0 1 0 1 0 1 0 1 1 1 0 0 1 1 1 0 0 1 1 1 0 0 0 0 1 1 0 0 0 0 0 0 0 1 0 0 1 0 0 0 1 1 1 0 1 0 0 1 1 1 1
    1       1    0 1 0 0 0 0 1 0 0 1 0 0 1 0 1 0 1 0 0 1 1 0 0 1 1
   37       2    0 1 1 1 0 0 0 1 0 0 1 1 0 1 1 1 0 0 1 0 1 1 0 0 1 1 0 1 1 0 1 0 1 0 1 0 0 1 0 0 1 0 0 0 0 0 1 1 1 1 1
    0       0    0 1 0 1 1 1 0 0 1 1 0 0 1 1 1 0 0 1 1 1 0 0 0 0 1 1 0 0 0 0 0 0 0 1 0 0 0 0 0 0 1 1 1 0 1 0 0 1 1 1 1
    1       1    0 1 0 0 0 0 1 0 1 1 0 0 0 0 1 1 0 0 0 1 1 0 0 1 1
   38       2    0 1 1 1 0 0 0 1 0 0 1 1 0 0 1 0 0 0 0 0 1 0 0 0 1 1 0 1 1 1 0 1 0 0 0 0 1 1 0 0 1 0 0 0 0 0 1 1 1 1 1
    0       0    0 1 1 0 1 1 0 0 0 1 0 0 1 1 1 0 0 1 1 1 0 1 0 1 1 1 0 0 0 0 0 0 0 1 0 0 1 1 0 0 0 1 1 0 1 0 0 1 1 1 1
    1       1    0 1 0 0 0 0 0 1 1 1 1 0 0 0 1 1 1 1 0 1 1 0 0 1 1
   39       2    0 1 1 1 0 0 0 1 0 0 1 1 0 1 1 1 0 0 0 0 1 1 0 0 1 1 0 1 1 0 1 1 0 0 1 0 1 1 0 0 1 0 0 0 0 0 1 1 1 1 1
    0       0    0 1 0 1 1 1 0 1 1 1 0 0 1 1 1 0 0 1 1 0 0 0 0 0 1 1 0 0 0 0 0 0 0 1 0 0 1 0 0 0 1 1 1 0 1 0 0 1 1 1 0
    1       1    0 1 0 0 0 0 1 1 0 1 0 0 0 0 0 1 0 0 0 1 1 0 0 1 1
   40       2    0 1 1 1 0 0 0 1 0 0 1 1 0 1 1 1 0 0 0 0 1 1 1 0 1 1 0 1 1 1 1 0 0 0 1 1 1 1 0 0 1 0 0 0 0 0 0 1 1 1 1
    0       0    0 1 0 1 1 1 0 0 1 1 1 1 0 1 1 0 1 1 1 1 0 0 0 0 1 1 0 0 0 0 0 0 1 1 1 0 0 0 0 0 1 1 1 0 1 0 0 1 1 1 1
    1       1    0 1 0 0 0 0 1 1 0 1 0 0 1 0 1 1 0 0 0 1 1 0 0 1 1
   41       2    0 1 1 1 0 0 0 1 0 0 1 1 0 0 1 0 0 0 1 0 1 1 1 0 1 0 0 1 1 1 1 0 1 0 1 1 1 1 0 0 1 0 0 0 0 0 1 1 1 1 1
    0       0    0 1 0 1 1 1 0 1 1 0 0 0 0 1 1 0 0 1 1 1 0 1 0 0 1 1 0 0 0 0 0 0 0 1 0 0 1 0 1 1 1 1 1 0 1 0 0 1 1 0 1
    1       1    0 1 0 0 0 1 0 0 0 1 1 0 0 0 0 1 1 0 0 1 1 0 0 1 1
   42       2    0 1 1 1 0 0 0 1 0 0 1 1 0 1 1 0 0 0 1 0 1 1 1 0 1 0 0 1 1 1 1 1 1 0 1 0 1 1 0 0 1 0 0 0 0 0 1 1 1 1 1
    0       0    0 1 0 1 1 1 0 1 1 0 0 0 0 1 1 0 0 1 1 1 0 1 0 0 1 1 0 0 0 0 0 0 0 1 1 0 1 0 0 0 1 1 1 0 1 0 0 1 1 0 1
    1       1    0 1 0 0 0 1 0 0 0 1 0 0 0 0 0 1 1 0 0 1 1 0 0 1 1
   43       2    0 1 1 1 0 0 0 1 0 0 1 1 0 1 1 0 0 0 1 0 1 1 1 0 1 1 0 1 1 1 1 1 1 0 1 1 0 1 0 0 1 0 0 0 0 0 1 1 1 1 1
    0       0    0 1 0 1 1 1 0 1 1 1 0 0 0 1 1 0 0 1 1 1 0 0 0 0 1 1 0 0 0 0 0 0 0 1 0 0 1 0 0 0 1 1 1 0 1 0 0 1 1 0 1
    1       1    0 1 0 0 0 1 0 0 0 1 0 0 1 0 0 0 1 0 0 1 1 0 0 1 1
   44       2    0 1 1 1 0 0 0 1 0 0 1 1 0 0 1 0 0 0 1 0 1 1 1 0 1 0 0 1 1 1 1 1 1 0 1 1 1 1 0 0 1 0 0 0 0 0 1 1 1 1 1
    0       0    0 1 1 1 1 1 0 1 1 1 0 0 1 1 1 0 0 1 1 1 1 1 0 0 1 1 0 0 0 0 0 0 0 1 0 0 0 0 0 0 1 1 1 0 1 0 0 1 1 1 1
    1       1    0 1 0 0 0 0 0 0 1 1 1 0 0 0 1 0 1 0 0 1 1 0 0 1 1
   45       2    0 1 1 1 0 0 0 1 0 0 1 1 0 0 1 0 0 0 1 1 1 1 0 0 1 1 0 1 1 0 1 1 1 0 1 1 1 1 0 0 1 0 0 0 0 0 1 1 1 1 1
    0       0    0 1 1 1 1 1 0 0 1 1 0 0 1 1 1 0 0 1 1 1 0 1 0 0 1 1 0 0 0 0 0 0 0 1 0 0 1 0 0 0 1 1 1 0 1 0 0 1 1 1 1
    1       1    0 1 0 0 0 0 0 0 0 1 0 0 0 0 0 1 1 0 0 1 1 0 0 1 1
   46       2    0 1 1 1 0 0 0 1 0 0 1 1 0 0 1 0 0 0 1 1 1 1 0 0 1 1 0 1 1 1 1 1 1 0 1 0 1 1 0 0 1 0 0 0 0 0 1 1 1 1 1
    0       0    0 1 1 1 1 1 0 0 1 1 0 0 1 1 1 0 0 1 1 0 1 1 0 0 1 1 0 0 0 0 0 0 0 1 0 0 0 0 0 0 1 1 1 0 1 0 0 1 1 1 1
    1       1    0 1 0 0 0 0 0 0 0 1 1 0 0 0 0 1 1 0 0 1 1 0 0 1 1
   47       2    0 1 1 1 0 0 0 1 0 0 1 1 0 0 0 0 0 0 0 0 1 1 0 0 1 0 0 1 1 1 0 1 1 0 1 1 1 1 0 0 1 0 0 0 0 1 1 1 1 1 1
    0       0    0 0 0 0 1 1 0 1 1 1 0 0 1 1 1 0 1 1 1 1 0 0 0 1 1 1 0 0 0 0 0 0 1 1 0 0 1 0 0 1 0 1 1 0 1 0 1 0 1 0 1
    1       1    0 1 0 0 0 0 0 0 0 1 1 0 0 1 0 1 0 0 0 1 1 0 0 1 1
   48       2    0 1 1 1 0 0 0 1 0 0 1 1 1 1 1 0 0 0 0 0 1 0 0 0 1 1 0 1 1 1 1 1 1 0 1 0 1 1 0 0 1 0 0 0 0 1 1 1 1 1 1
    0       0    0 1 0 1 1 0 0 0 1 1 0 0 0 0 1 0 1 1 1 1 0 0 0 0 1 1 0 0 0 0 0 0 0 1 0 0 1 0 0 0 0 1 1 0 1 0 0 1 1 1 1
    1       1    0 1 0 0 0 0 0 1 1 1 0 0 1 0 1 1 1 0 0 1 1 0 0 1 1
   49       2    0 1 1 1 0 0 0 1 0 0 1 1 1 1 1 0 0 0 0 0 1 0 0 0 1 1 0 1 1 1 1 1 0 0 1 1 1 1 0 0 1 0 0 0 0 1 1 1 1 1 1
    0       0    0 1 0 1 1 0 0 1 1 1 0 0 1 0 1 0 1 1 1 0 0 0 0 0 1 1 0 0 0 0 0 0 0 1 0 0 1 0 0 0 1 1 1 0 1 0 0 1 1 1 1
    1       1    0 1 0 0 0 0 0 1 0 1 0 0 0 0 0 1 1 0 0 1 1 0 0 1 1
   50       2    0 1 1 1 0 0 0 1 0 0 1 1 1 1 1 0 0 0 0 0 1 0 0 0 1 0 0 1 1 0 0 1 1 0 1 1 1 1 0 0 1 0 0 0 0 1 1 1 1 1 1
    0       0    0 1 0 1 1 1 0 0 1 1 1 0 0 1 1 0 1 1 1 1 0 1 0 1 1 1 0 0 0 0 0 0 1 1 0 0 0 0 0 0 0 1 1 0 1 0 0 1 1 1 1
    1       1    0 1 0 0 0 0 0 1 1 1 1 0 0 0 0 1 1 1 0 1 1 0 0 1 1
   51       2    0 1 1 1 0 0 0 1 0 0 1 1 0 0 1 0 0 0 1 1 1 1 0 0 1 1 0 1 1 1 1 1 1 0 1 0 1 1 0 0 1 0 0 0 0 1 1 1 1 1 1
    0       0    0 1 0 1 1 1 0 0 1 1 0 0 1 1 1 0 1 1 1 0 0 1 0 0 1 1 0 0 0 0 0 0 0 1 0 0 1 0 0 0 1 1 1 0 1 0 0 1 1 1 1
    1       1    0 1 0 0 0 0 0 1 0 1 0 0 0 0 0 1 1 0 0 1 1 0 0 1 1
   52       2    0 1 1 1 0 0 0 1 0 0 1 1 1 1 0 0 0 0 0 0 1 0 0 0 1 1 0 1 1 1 1 1 1 0 1 0 1 1 0 0 1 0 0 0 0 1 1 1 1 1 1
    0       0    0 1 0 1 1 1 0 0 1 0 0 0 1 0 1 0 1 1 1 1 0 0 0 0 1 1 0 0 0 0 0 0 0 1 0 0 1 0 1 0 1 1 1 0 1 0 0 1 1 1 1
    1       1    0 1 0 0 0 0 0 1 1 1 0 0 1 0 0 1 1 0 0 1 1 0 0 1 1
   53       2    0 1 1 1 0 0 0 1 0 0 1 1 1 0 1 0 0 0 0 0 1 0 0 0 0 1 0 1 1 0 0 0 1 0 1 1 1 1 0 0 1 0 0 0 0 1 1 1 1 1 1
    0       0    0 1 0 1 1 1 0 0 1 1 0 0 0 0 1 0 0 1 1 1 0 1 0 1 1 1 0 0 0 0 0 0 0 1 0 0 0 0 0 0 1 1 1 0 1 0 0 1 1 1 1
    1       1    0 1 0 0 0 0 0 1 1 1 1 0 0 0 0 1 1 0 0 1 1 0 0 1 1
   54       2    0 1 1 1 0 0 0 1 0 0 1 1 1 1 1 0 0 0 0 0 1 1 0 0 1 0 0 1 1 1 1 1 1 0 0 0 1 1 0 0 1 0 0 0 0 1 1 1 1 1 1
    0       0    0 1 0 1 1 1 0 0 1 1 1 0 0 1 1 0 0 1 1 1 0 0 0 0 1 1 0 0 0 0 0 0 0 1 0 0 1 0 0 0 0 1 1 0 1 0 0 1 1 1 0
    1       1    0 1 0 0 0 0 1 0 1 1 0 0 0 0 1 1 1 1 0 1 1 0 0 1 1
   8800000.00000000        1618033.00000000       0.000000000000000E+000
  1.136363636363636E-007   2091030.00000000        6524285.00000000     
           1          49          25
   8040666.00000000        3729606.00000000        274903.000000000     
   2990881.00000000        5028547.00000000        336278.000000000     
   4865540.00000000        3224775.00000000        2630079.00000000     
   4363085.00000000        8239802.00000000        4036135.00000000     
   4399276.00000000        2462594.00000000        1473253.00000000     
   1359186.00000000        5963478.00000000        5537778.00000000     
   651950.000000000        6658558.00000000        7900191.00000000     
   8294151.00000000        2774421.00000000        886757.000000000     
   8605130.00000000        1375080.00000000        204434.000000000     
   2287364.00000000        6982103.00000000        453533.000000000     
   6285907.00000000        2342867.00000000        7697345.00000000     
   6192280.00000000        1939764.00000000        572746.000000000     
   274555.000000000        3705431.00000000        6256275.00000000     
   4593571.00000000        6354860.00000000        5520718.00000000     
   6381042.00000000        1381013.00000000        4042474.00000000     
   7214979.00000000        2438925.00000000        642915.000000000     
   2091030.00000000        455210.000000000        5484459.00000000     
   3133179.00000000        5589069.00000000        3668003.00000000     
   6216714.00000000     
   8800000.00000000        1618033.00000000       0.000000000000000E+000
  1.136363636363636E-007   8650379.00000000        1667309.00000000     
           1          24          55
   3846392.00000000        3405899.00000000        6544841.00000000     
   8422189.00000000        5828171.00000000        4673052.00000000     
   5563290.00000000        530721.000000000        5758373.00000000     
   2271512.00000000        4247505.00000000        1569678.00000000     
   8672286.00000000        7765889.00000000        2606205.00000000     
   1046101.00000000        1280217.00000000        8262590.00000000     
   8018979.00000000        1234741.00000000        2135076.00000000     
   2653890.00000000        1300471.00000000        8650379.00000000     
   326312.000000000        8121714.00000000        7113853.00000000     
   3630205.00000000        8168779.00000000        2713731.00000000     
   3048019.00000000        8102693.00000000        6260123.00000000     
   7534227.00000000        1988133.00000000        8192920.00000000     
   8435928.00000000        5017668.00000000        4975578.00000000     
   4539522.00000000        4326342.00000000        1603518.00000000     
   515188.000000000        6456139.00000000        5168612.00000000     
   5513565.00000000        5424514.00000000        8312631.00000000     
   1697233.00000000        6531138.00000000        6057462.00000000     
   7642608.00000000        2848117.00000000        2702501.00000000     
   782167.000000000     
   8800000.00000000        1618033.00000000       0.000000000000000E+000
  1.136363636363636E-007   3256506.00000000        2512077.00000000     
           1          49          25
   1205362.00000000        3260952.00000000        2426941.00000000     
   796289.000000000        1935001.00000000        4354068.00000000     
   8346358.00000000        3032197.00000000        3398313.00000000     
   8150527.00000000        1916464.00000000        2277331.00000000     
   1205122.00000000        8426312.00000000        6854107.00000000     
   5333080.00000000        3409730.00000000        3171144.00000000     
   2330920.00000000        6674146.00000000        4450589.00000000     
   2098203.00000000        6233293.00000000        8052747.00000000     
   1806642.00000000        3333544.00000000        3769756.00000000     
   6423514.00000000        3423661.00000000        2997251.00000000     
   6301009.00000000        8365829.00000000        4619285.00000000     
   3336744.00000000        7562536.00000000        3093220.00000000     
   5313081.00000000        8362971.00000000        923239.000000000     
   3431599.00000000        1692750.00000000        717850.000000000     
   6301772.00000000        4414983.00000000        2822270.00000000     
   805309.000000000        4941331.00000000        4341717.00000000     
   3256506.00000000        5584346.00000000        8204977.00000000     
   338399.000000000        3599967.00000000        5591267.00000000     
   3573750.00000000     
