         103          54
    1    0 1 0 0 1 0 0 1 0 1 0 1 0 1 1 1 1 0 1 1 0 1 0 0 1 1 1 0 0 0 0 0 0 0 1 0 1 1 1 1 1 0 0 1 0 1 1 1 1 1 0
    0    1 1 1 0 1 0 0 0 0 1 0 0 0 1 1 0 1 0 1 1 0 1 1 1 0 1 1 0 0 0 0 0 0 1 1 0 1 1 0 0 0 1 1 1 1 0 0 0 1 0 0
    1    0 1 1 0 1 0 1 0 0 0 0 0 0 0 1 1 1 0 0 1 0 1 1 0 0 1 1
    2    0 1 0 0 1 0 0 1 0 1 0 1 0 1 1 1 1 0 1 1 0 1 0 0 0 1 1 0 0 0 0 0 0 0 1 0 1 1 1 1 1 0 0 1 0 1 1 1 1 1 0
    0    1 1 1 0 1 0 0 0 0 1 0 0 0 1 1 1 1 0 1 1 0 1 1 1 0 1 1 0 0 0 0 0 0 1 1 0 1 1 0 0 0 1 1 1 1 0 0 0 1 0 0
    1    0 1 1 0 1 0 1 0 0 0 0 0 0 0 1 1 1 0 0 1 0 1 1 0 0 1 1
    3    0 1 0 0 1 0 0 1 0 1 0 1 0 1 1 1 1 1 1 1 1 1 0 0 0 1 0 0 1 0 0 0 1 0 1 0 1 1 1 1 1 0 0 1 0 1 1 1 1 1 0
    0    1 1 1 0 0 0 0 0 0 1 0 0 0 1 1 1 1 0 1 1 0 1 1 0 0 1 1 0 0 0 0 0 0 1 0 0 1 1 0 0 0 1 1 1 1 0 0 0 1 0 0
    1    0 1 1 0 1 0 1 0 0 1 0 1 0 0 1 1 1 0 0 1 0 1 1 0 0 1 1
    4    0 1 0 0 1 0 0 1 0 1 0 1 0 1 1 0 1 0 1 1 1 1 0 0 1 1 1 0 1 0 1 0 0 1 1 0 1 1 1 1 1 0 0 1 0 1 0 1 1 1 0
    0    1 1 1 0 1 0 0 0 0 1 0 1 0 1 1 0 1 0 0 1 0 1 1 0 0 1 1 0 0 0 0 0 0 1 1 0 1 1 0 0 0 1 1 1 1 0 0 0 1 0 0
    1    0 1 1 0 1 0 1 0 0 1 0 1 1 0 1 1 1 0 0 1 0 1 1 0 0 1 1
    5    0 1 0 0 1 0 0 1 0 1 0 1 0 1 1 1 1 0 1 1 0 1 0 0 1 1 1 0 0 0 0 0 1 0 1 0 1 1 1 1 1 0 0 1 0 1 0 1 1 1 0
    0    1 1 1 0 1 0 0 0 0 0 0 0 0 1 1 0 1 0 1 1 0 1 1 0 0 1 1 0 0 0 0 0 0 1 1 0 1 1 0 0 0 1 1 1 1 0 0 0 1 0 0
    1    0 1 1 0 1 0 1 0 0 1 0 0 0 0 0 1 1 0 0 1 0 1 1 0 0 1 1
    6    0 1 0 0 1 0 0 1 0 1 0 1 0 1 1 1 1 0 1 1 1 1 0 0 1 1 1 0 1 0 0 0 0 1 1 0 1 1 1 1 1 0 0 1 0 1 0 1 1 1 0
    0    1 1 1 0 1 0 0 0 0 1 0 0 0 1 1 0 1 0 0 0 0 1 1 0 0 1 1 0 0 0 0 0 0 1 1 0 1 1 0 0 0 1 1 1 1 0 0 0 1 0 0
    1    0 1 1 0 1 0 1 0 0 1 0 0 0 0 1 1 1 0 0 1 0 1 1 0 0 1 1
    7    0 1 0 0 1 0 0 1 0 1 0 1 0 1 1 0 1 0 1 1 0 1 0 0 1 1 1 0 0 0 0 0 1 0 1 0 1 1 1 1 1 0 0 1 0 1 0 1 1 1 0
    0    1 1 1 0 1 0 0 1 0 0 0 1 0 1 1 0 1 0 0 0 0 1 1 0 0 1 1 0 0 0 0 0 0 1 1 0 1 1 0 0 0 1 1 1 1 0 0 0 1 0 0
    1    0 1 1 0 1 0 1 0 0 1 0 1 0 0 0 1 1 0 0 1 0 1 1 0 0 1 1
    8    0 1 0 0 1 0 0 1 0 1 0 1 0 1 1 1 1 0 1 1 1 1 0 0 1 1 1 0 1 0 0 0 0 1 1 0 1 1 1 1 1 0 0 1 0 1 0 1 1 1 0
    0    1 1 1 0 1 0 0 0 0 1 0 0 0 1 1 0 1 0 1 1 0 1 1 1 0 1 1 0 0 0 0 0 0 1 1 0 1 1 0 0 0 1 1 1 1 0 0 0 1 0 0
    1    0 1 1 0 1 0 1 0 0 1 0 0 0 0 1 1 1 0 0 1 0 1 1 0 0 1 1
    9    0 1 0 0 1 0 0 1 0 1 0 1 0 1 1 0 1 0 1 1 0 1 0 0 1 1 1 0 1 0 1 0 1 1 1 0 1 1 1 1 1 0 0 1 0 1 0 1 1 1 0
    0    1 1 1 0 0 0 0 0 0 0 0 1 0 1 1 0 1 0 0 1 0 1 1 0 0 1 1 0 0 0 0 0 0 1 1 0 1 1 0 0 0 1 1 1 1 0 0 0 1 0 0
    1    0 1 1 0 1 0 1 0 1 0 0 1 0 0 0 1 1 0 0 1 0 1 1 0 0 1 1
   10    0 1 0 0 1 0 0 1 0 1 0 1 0 1 1 1 1 0 1 1 1 1 0 0 1 1 1 0 1 0 0 0 1 1 1 0 1 1 1 1 1 0 0 1 0 1 0 1 1 1 0
    0    1 1 1 0 0 0 0 0 0 1 1 1 0 1 1 0 1 0 0 1 0 1 1 0 0 1 1 0 0 0 0 0 0 1 0 0 1 1 0 0 1 1 1 1 1 0 0 0 1 0 0
    1    0 1 1 0 1 0 1 0 1 0 0 0 0 0 0 1 1 0 0 1 0 1 1 0 0 1 1
   11    0 1 0 0 1 0 0 1 0 1 0 1 0 1 1 1 1 0 1 1 1 0 0 0 1 0 1 0 1 0 1 0 0 0 1 0 1 1 1 1 1 0 0 1 1 1 0 1 1 1 0
    0    1 1 1 0 0 0 0 0 0 1 0 0 1 1 1 0 1 0 1 0 0 1 1 0 0 1 1 0 0 0 0 0 0 1 1 0 1 1 0 0 0 1 1 1 1 0 0 0 0 1 0
    1    0 1 1 0 1 0 1 0 1 0 0 0 0 0 1 1 1 0 0 1 0 1 1 0 0 1 1
   12    0 1 0 0 1 0 0 1 0 1 0 1 1 1 1 1 1 1 1 1 1 1 0 0 1 1 0 0 1 0 1 0 0 0 1 0 1 1 1 1 1 0 0 1 0 1 0 1 1 1 0
    0    1 1 1 0 0 0 0 0 0 0 1 1 0 1 1 0 1 0 0 1 0 1 1 0 0 1 1 0 0 0 0 0 0 1 1 0 1 1 1 0 0 1 1 1 1 0 0 0 1 0 0
    0    0 1 1 0 1 0 1 0 1 1 0 0 0 0 0 1 1 0 0 1 0 1 1 0 0 1 1
   13    0 1 0 0 1 0 0 1 0 1 0 1 0 0 1 1 1 0 1 1 1 1 0 0 1 1 1 0 1 0 0 0 1 1 0 0 1 1 1 1 1 0 0 1 0 1 0 1 1 1 0
    0    1 1 1 0 0 0 0 0 0 1 0 1 0 1 1 0 1 0 0 1 0 1 1 0 0 1 1 0 0 0 0 0 0 1 1 0 1 0 1 0 0 1 1 1 1 0 0 0 1 0 0
    0    0 1 1 0 1 0 1 0 1 1 0 0 0 0 0 1 1 0 0 1 0 1 1 0 0 1 1
   14    0 1 0 0 1 0 0 1 0 1 0 1 0 1 1 1 1 1 1 1 1 1 0 0 1 1 1 0 1 0 0 0 0 1 0 0 1 1 1 1 1 0 0 1 0 1 0 1 1 1 0
    0    1 1 1 0 0 0 0 0 0 1 0 0 0 1 1 0 1 0 0 0 0 1 1 0 0 1 1 0 0 0 0 0 0 1 1 0 1 1 1 0 0 1 1 1 1 0 0 0 1 0 0
    0    0 1 1 0 1 0 1 0 1 1 0 0 0 0 0 1 1 0 0 1 0 1 1 0 0 1 1
   15    0 1 0 0 1 0 0 1 0 1 0 1 1 1 1 1 1 1 1 1 1 1 0 0 1 1 1 0 0 0 1 0 0 0 1 0 1 1 1 1 1 0 0 1 0 1 0 1 1 1 0
    0    1 1 1 0 0 0 0 0 1 0 0 1 0 1 1 0 1 0 0 1 0 1 1 0 0 1 1 0 0 0 0 0 0 1 1 0 1 1 0 0 0 0 1 1 1 0 0 0 1 0 0
    0    0 1 1 0 1 0 1 0 1 1 0 0 0 0 0 1 1 0 0 1 0 1 1 0 0 1 1
   16    0 1 0 0 1 0 0 1 0 1 0 1 0 1 1 1 1 1 1 1 0 1 0 0 1 1 1 0 1 0 0 0 1 1 1 0 1 1 1 1 1 0 0 1 0 1 0 1 1 1 0
    0    1 1 1 0 0 0 0 0 0 1 0 1 1 1 1 0 1 0 1 1 0 0 1 0 0 1 1 0 0 0 0 0 1 1 1 0 1 1 0 0 0 1 1 1 1 0 0 0 1 0 0
    0    0 1 1 0 1 0 1 0 1 1 0 0 0 0 0 1 1 0 0 1 0 1 1 0 0 1 1
   17    0 1 0 0 1 0 0 1 0 1 0 1 0 1 1 1 1 1 1 1 1 1 0 0 1 1 1 0 1 0 0 0 0 1 1 0 1 1 1 1 1 0 0 1 0 1 0 1 1 1 0
    0    1 1 1 0 0 0 0 0 0 1 0 0 0 1 1 0 1 0 0 0 0 1 1 0 0 1 1 0 0 0 0 0 0 1 1 0 1 1 1 0 0 1 1 1 1 0 0 0 1 0 0
    0    0 1 1 0 1 0 1 0 1 1 0 0 0 0 0 1 1 0 0 1 0 1 1 0 0 1 1
   18    0 1 0 0 1 0 0 1 0 1 0 1 0 1 1 1 1 1 1 1 1 1 0 0 1 1 0 0 1 0 0 0 1 0 1 0 1 1 1 1 1 0 0 1 0 1 0 1 1 1 0
    0    1 1 1 0 0 0 0 0 0 1 0 1 0 1 1 0 1 0 1 1 0 1 1 0 0 1 1 0 0 0 0 0 1 1 0 0 1 1 0 0 0 1 1 1 1 0 0 0 1 0 0
    0    0 1 1 0 1 0 1 0 1 1 0 0 0 0 1 1 1 0 0 1 0 1 1 0 0 1 1
   19    0 1 0 0 1 0 0 1 0 1 0 1 0 1 1 1 1 1 1 1 0 1 0 0 1 1 1 0 1 0 0 0 0 1 1 0 1 1 1 1 1 0 0 1 0 1 0 1 1 1 0
    0    1 1 1 0 0 0 0 0 0 1 0 0 0 1 1 0 1 0 0 1 0 1 1 0 0 1 1 0 0 0 0 0 1 1 1 0 1 1 1 0 0 1 1 1 1 0 0 0 1 0 0
    0    0 1 1 0 1 0 1 0 1 1 0 0 0 0 0 0 1 0 0 1 0 1 1 0 0 1 1
   20    0 1 0 0 1 0 0 1 0 1 0 1 0 0 1 1 1 0 1 1 1 1 0 0 1 0 1 0 1 0 1 0 0 0 1 0 1 1 1 1 1 0 0 1 0 1 0 1 1 1 0
    0    1 1 1 0 0 0 0 0 0 0 0 0 0 1 1 0 1 0 0 1 0 1 1 0 0 1 1 0 0 0 0 0 0 1 1 0 1 1 0 0 0 1 1 1 1 0 0 0 1 0 0
    0    0 1 1 0 1 0 1 0 1 1 0 0 0 0 1 1 1 0 0 1 0 1 1 0 0 1 1
   21    0 1 0 0 1 0 0 1 0 1 0 1 0 1 1 1 1 1 1 1 1 1 0 0 1 1 1 0 1 0 0 0 1 1 0 0 1 1 1 1 1 0 0 1 0 1 0 1 1 1 0
    0    1 1 1 0 0 0 0 0 0 1 0 0 0 1 1 0 1 0 0 1 0 0 1 0 0 1 1 0 0 0 0 0 0 1 1 0 1 1 1 0 0 1 1 1 1 0 0 0 1 0 0
    0    0 1 1 0 1 0 1 0 1 1 0 0 0 0 0 1 1 0 0 1 0 1 1 0 0 1 1
   22    0 1 0 0 1 0 0 1 0 1 0 1 0 1 1 0 1 1 1 1 1 1 0 0 1 1 1 0 1 0 1 0 0 0 1 0 1 1 1 1 1 0 0 1 0 1 0 1 1 1 0
    0    1 1 1 0 0 0 0 0 0 1 0 1 0 1 1 0 1 0 0 1 0 1 1 0 0 1 1 0 0 0 0 0 0 1 1 0 1 1 1 0 0 1 1 1 1 0 0 0 1 0 0
    0    0 1 1 0 1 0 1 0 1 1 0 1 1 0 0 1 1 0 0 1 0 1 1 0 0 1 1
   23    0 1 0 0 1 0 0 1 0 1 0 1 0 1 1 1 1 0 1 1 0 1 0 0 1 0 1 0 1 0 1 0 1 1 1 0 1 1 1 1 1 0 0 1 0 1 0 1 1 1 0
    0    1 1 1 0 0 0 0 0 0 1 0 0 0 1 1 0 1 0 0 1 0 0 1 0 0 1 1 0 0 0 0 0 0 1 1 0 1 1 0 0 0 1 1 1 1 0 0 0 1 0 0
    0    0 1 1 0 1 0 1 0 1 1 0 1 0 0 0 1 1 0 0 1 0 1 1 0 0 1 1
   24    0 1 0 0 1 0 0 1 0 1 0 1 1 1 1 1 1 1 1 1 0 1 0 0 1 1 0 0 1 0 0 1 0 1 1 0 1 1 1 1 1 0 0 1 0 1 0 1 1 1 0
    0    1 1 1 0 0 0 1 0 0 0 1 1 0 1 1 0 1 0 0 1 0 1 1 0 0 1 1 0 0 0 0 0 0 1 1 0 1 1 1 0 0 1 1 1 1 0 0 0 1 0 0
    0    0 1 1 0 1 0 1 0 1 1 0 0 0 0 0 0 1 0 0 1 0 1 1 0 0 1 1
   25    0 1 0 0 1 0 0 1 0 1 0 1 0 1 1 1 1 1 1 1 0 1 0 0 1 1 0 0 1 0 0 0 1 0 1 0 1 1 1 1 1 0 0 1 0 1 0 1 1 1 0
    0    1 1 1 0 0 0 0 0 0 1 0 1 0 1 1 0 1 0 0 1 0 1 1 0 0 1 1 0 0 0 0 0 1 1 0 0 1 1 0 0 0 1 1 1 1 0 0 0 1 0 0
    0    0 1 1 0 1 0 1 0 1 1 0 0 0 0 0 0 1 0 0 1 0 1 1 0 0 1 1
   26    0 1 0 0 1 0 0 1 0 1 0 1 0 1 1 1 1 1 1 1 1 1 0 0 1 1 1 0 1 1 0 0 0 1 0 0 1 1 1 1 1 0 0 1 0 1 0 1 1 1 0
    0    1 1 1 0 0 0 1 0 0 1 0 0 0 1 1 0 1 0 0 0 0 1 1 0 0 1 1 0 0 0 0 0 0 1 1 0 1 1 1 0 0 1 1 1 1 0 0 0 1 0 0
    0    0 1 1 0 1 0 1 0 1 1 0 0 0 0 0 1 1 0 0 1 0 1 1 0 0 1 1
   27    0 1 0 0 1 0 0 1 0 1 0 1 1 1 1 1 1 1 1 1 1 1 0 0 1 1 1 0 1 0 1 0 0 0 1 0 1 1 1 1 1 0 0 1 0 1 0 1 1 1 0
    0    1 1 1 0 0 1 0 0 0 0 0 0 0 1 1 1 1 0 0 1 0 1 1 0 0 1 1 0 0 0 0 0 0 1 1 0 1 1 0 0 0 1 1 1 1 0 0 0 1 0 0
    0    0 1 1 0 1 0 1 0 1 1 0 0 0 0 1 1 1 0 0 1 0 1 1 0 0 1 1
   28    0 1 0 0 1 0 0 1 0 1 0 1 0 1 1 1 1 0 1 1 1 1 0 0 1 0 1 0 1 0 0 0 1 1 0 0 0 1 1 1 1 0 0 1 0 1 0 1 1 1 0
    0    1 1 1 0 0 0 0 0 0 1 0 1 0 1 1 0 1 0 0 1 0 1 1 0 0 1 1 0 0 0 0 0 0 1 1 0 1 1 0 0 0 1 1 1 1 0 0 0 1 0 0
    0    0 1 1 0 1 0 1 0 1 1 0 0 0 0 0 1 1 0 0 1 0 1 1 0 0 1 1
   29    0 1 0 0 1 0 0 1 0 1 0 1 0 0 1 0 1 0 1 0 1 1 0 0 1 1 1 0 1 0 1 0 0 1 0 0 1 1 1 1 1 0 0 1 0 1 0 1 1 1 0
    0    1 1 1 0 0 0 0 0 0 1 0 1 0 1 1 0 1 0 0 1 0 0 1 0 0 1 1 0 0 0 0 0 0 1 1 0 1 0 0 0 0 1 1 1 1 0 0 0 1 0 0
    0    0 1 1 0 1 0 1 0 1 1 0 1 1 0 1 1 1 0 0 1 0 1 1 0 0 1 1
   30    0 1 0 0 1 0 0 1 0 1 0 1 0 1 1 1 1 1 1 1 1 1 0 0 1 1 0 0 1 0 0 0 0 0 1 0 1 1 1 1 1 0 0 1 0 1 0 1 1 1 0
    0    1 1 1 0 0 0 0 0 0 1 0 1 0 1 1 0 1 0 0 1 0 1 1 0 0 1 1 0 0 0 0 0 0 1 1 0 1 1 0 0 0 1 1 1 1 0 0 0 1 0 0
    0    0 1 1 0 1 0 1 0 1 1 0 0 0 0 1 1 1 0 0 1 0 1 1 0 0 1 1
   31    0 1 0 0 1 0 0 1 0 1 0 1 0 1 1 1 1 1 1 1 0 1 0 0 0 1 1 0 1 1 0 0 0 1 0 0 1 1 1 1 1 0 0 1 0 1 0 1 1 1 0
    0    1 1 1 0 0 0 0 0 0 1 1 0 0 1 1 0 1 0 0 0 0 0 1 0 0 1 1 0 0 0 0 0 0 1 1 0 1 1 1 0 0 1 1 1 1 0 0 0 1 0 0
    0    0 1 1 0 1 0 1 0 1 1 0 0 0 0 0 1 1 0 0 1 0 1 1 0 0 1 1
   32    0 1 0 0 1 0 0 1 0 1 0 1 0 1 1 1 1 1 1 1 1 1 0 0 1 1 1 0 1 0 0 0 0 1 0 0 1 1 1 1 1 0 0 1 0 1 0 1 1 1 0
    0    1 1 1 0 0 0 0 0 0 1 0 0 0 1 1 0 1 0 0 0 0 1 1 0 0 1 1 0 0 0 0 0 0 1 1 0 1 1 0 0 0 1 1 1 1 0 0 0 1 0 0
    0    0 1 1 0 1 0 1 0 1 1 0 0 0 0 1 1 1 0 0 1 0 1 1 0 0 1 1
   33    0 1 0 0 1 0 0 1 0 1 0 1 1 1 1 1 1 1 1 1 1 1 0 0 1 1 1 0 0 0 1 0 1 1 1 0 1 1 1 1 1 0 0 1 0 1 0 1 1 1 0
    0    1 1 1 0 0 0 0 0 1 0 0 1 0 1 1 0 1 0 0 0 0 1 1 0 0 1 1 0 0 0 0 0 0 1 1 0 1 1 0 0 0 1 1 1 1 0 0 0 1 0 0
    0    0 1 1 0 1 0 1 0 1 1 0 0 0 0 0 1 1 0 0 1 0 1 1 0 0 1 1
   34    0 1 0 0 1 0 0 1 0 1 0 1 0 1 1 1 1 1 1 1 1 1 0 0 1 1 0 0 1 0 0 0 0 1 1 0 0 1 1 1 1 0 0 1 0 1 0 1 1 1 0
    0    1 1 1 0 0 0 0 1 0 1 0 1 0 1 1 0 1 0 0 1 0 1 1 0 0 1 1 0 0 0 0 0 1 1 0 0 1 1 0 0 0 1 1 1 1 0 0 0 1 0 0
    0    0 1 1 0 1 0 1 0 1 1 0 1 0 0 0 1 1 0 0 1 0 1 1 0 0 1 1
   35    0 1 0 0 1 0 0 1 0 1 0 1 0 1 1 1 1 1 1 1 0 1 0 0 0 1 1 0 1 1 0 0 0 1 0 0 1 1 1 1 1 0 0 1 0 1 0 1 1 1 0
    0    1 1 1 0 0 0 1 0 0 1 1 0 0 1 1 0 1 0 0 0 0 1 1 0 0 1 1 0 0 0 0 0 1 1 1 1 1 1 0 0 0 1 1 1 1 0 0 0 1 0 0
    0    0 1 1 0 1 0 1 0 1 1 0 0 0 0 0 1 1 0 0 1 0 1 1 0 0 1 1
   36    0 1 0 0 1 0 0 1 0 1 0 1 0 1 1 1 1 1 1 1 1 1 0 0 1 1 0 0 1 0 0 0 1 0 1 0 1 1 1 1 1 0 0 1 0 1 0 1 1 1 0
    0    1 1 1 0 0 0 0 0 0 1 0 1 1 1 1 1 1 0 1 1 0 1 1 0 0 1 1 0 0 0 0 0 1 1 0 0 1 1 0 0 0 1 1 1 1 0 0 0 1 0 0
    0    0 1 1 0 1 0 1 0 1 1 0 0 0 1 1 1 1 0 0 1 0 1 1 0 0 1 1
   37    0 1 0 0 1 0 0 1 0 1 0 1 0 1 1 1 1 1 1 1 0 1 0 0 1 1 1 0 1 0 0 0 0 1 0 0 0 1 1 1 1 0 0 1 0 1 0 1 1 1 0
    0    1 1 1 0 0 0 0 0 0 1 0 0 0 1 1 0 1 0 0 0 0 0 1 0 0 1 1 0 0 0 0 0 0 1 1 0 1 1 0 0 0 1 1 1 1 0 0 0 1 0 0
    0    0 1 1 0 1 0 1 0 1 1 0 0 0 0 0 1 1 0 0 1 0 1 1 0 0 1 1
   38    0 1 0 0 1 0 0 1 0 1 0 1 0 1 1 1 0 1 1 1 1 1 0 0 1 1 1 1 1 1 0 0 0 1 0 0 0 1 1 1 1 0 0 1 0 1 0 1 1 1 0
    0    1 1 1 0 0 0 0 0 0 1 0 1 0 1 1 0 1 0 0 0 0 1 1 0 0 1 1 0 0 0 0 0 0 1 0 0 1 1 1 0 0 0 1 1 1 0 0 0 1 0 0
    0    0 1 1 0 1 0 1 0 1 1 0 0 0 0 0 1 1 0 0 1 0 1 1 0 0 1 1
   39    0 1 0 0 1 0 0 1 0 1 0 1 0 1 1 1 1 1 1 1 1 1 0 0 1 1 1 0 1 0 0 0 0 0 1 0 1 1 1 1 1 0 0 1 0 1 0 1 1 1 0
    0    1 1 1 0 0 1 0 0 0 1 0 0 0 1 1 1 1 0 0 1 0 1 1 1 0 1 1 0 0 0 0 0 0 1 1 0 1 1 0 0 0 1 1 1 1 0 0 0 1 0 0
    0    0 1 1 0 1 0 1 0 1 1 0 0 0 0 1 1 1 0 0 1 0 1 1 0 0 1 1
   40    0 1 0 0 1 0 0 1 0 1 0 1 0 1 1 1 1 1 1 1 0 1 0 0 0 1 1 0 0 0 0 0 0 0 1 0 1 1 1 1 1 0 0 1 0 1 0 1 1 1 0
    0    1 1 1 0 0 0 0 1 0 1 0 0 0 1 1 0 1 0 0 1 0 1 1 0 0 1 1 0 0 0 0 0 0 1 1 0 1 1 0 0 0 1 1 1 1 0 0 0 1 0 0
    0    0 1 1 0 1 0 1 0 1 1 0 0 0 0 1 0 1 0 0 1 0 1 1 0 0 1 1
   41    0 1 0 0 1 0 0 1 0 1 0 1 1 1 1 1 1 1 1 1 1 1 1 0 1 1 1 1 1 0 1 0 1 0 1 0 1 1 1 1 1 0 0 1 0 1 0 1 1 1 0
    0    1 1 1 0 0 1 0 0 0 0 0 0 0 1 1 1 1 0 0 1 1 1 1 0 0 1 1 0 0 0 0 0 1 1 0 0 1 1 0 0 0 1 1 1 1 0 0 0 1 0 0
    0    0 1 1 0 1 0 1 0 1 1 0 0 0 0 0 1 1 0 0 1 0 1 1 0 0 1 1
   42    0 1 0 0 1 0 0 1 0 1 0 1 1 1 1 1 1 1 1 1 1 1 0 0 1 1 1 0 1 0 0 0 0 1 1 0 1 1 1 1 1 0 0 1 0 1 0 1 1 1 0
    0    1 1 1 0 0 0 0 0 0 0 1 1 0 1 1 0 1 0 1 1 0 1 1 1 0 1 1 0 0 0 0 0 1 1 1 0 1 1 0 0 0 1 1 1 1 0 0 0 1 0 0
    0    0 1 1 0 1 0 1 0 1 1 0 0 0 0 0 1 1 0 0 1 0 1 1 0 0 1 1
   43    0 1 0 0 1 0 0 1 0 1 0 1 0 1 1 0 1 1 1 1 1 1 1 0 1 1 1 0 1 0 0 0 0 1 1 0 1 1 1 1 1 0 0 1 0 1 0 1 1 1 0
    0    1 1 1 0 0 0 0 1 0 1 0 1 0 1 1 0 1 0 1 1 0 1 1 0 0 1 1 0 0 0 0 0 1 1 0 0 1 1 1 0 0 1 1 1 1 0 0 0 1 0 0
    0    0 1 1 0 1 0 1 0 1 1 0 1 0 0 0 1 1 0 0 1 0 1 1 0 0 1 1
   44    0 1 0 0 1 0 0 1 0 1 0 1 0 1 1 1 1 1 1 1 1 1 0 0 1 1 0 0 1 0 0 0 0 1 1 0 0 1 1 1 1 0 0 1 0 1 0 1 1 1 0
    0    1 1 1 0 0 0 0 0 0 1 0 0 0 1 1 0 1 0 0 1 0 1 1 1 0 1 1 0 0 0 0 0 1 1 1 0 1 1 0 0 0 1 1 1 1 0 0 0 1 0 0
    0    0 1 1 0 1 0 1 0 1 1 0 0 0 0 1 1 1 0 0 1 0 1 1 0 0 1 1
   45    0 1 0 0 1 0 0 1 0 1 0 1 0 0 1 0 1 0 1 1 1 1 0 0 0 1 1 0 1 0 0 0 0 1 0 0 1 1 1 1 1 0 0 1 0 1 0 1 1 1 0
    0    1 1 1 0 0 0 0 0 0 1 0 1 0 1 1 0 1 0 0 1 0 0 1 0 0 1 1 0 0 0 0 0 0 1 1 0 1 0 1 0 0 1 1 1 1 0 0 0 1 0 0
    0    0 1 1 0 1 0 1 0 1 1 0 1 0 0 0 1 1 0 0 1 0 1 1 0 0 1 1
   46    0 1 0 0 1 0 0 1 0 1 0 1 0 1 1 1 1 1 1 0 1 1 0 0 1 1 1 0 1 0 1 0 1 0 0 0 1 1 1 1 1 0 0 1 0 1 0 1 1 1 0
    0    1 1 1 0 0 0 0 0 1 1 0 0 0 1 1 0 1 0 0 1 0 0 0 0 0 1 1 0 0 0 0 0 0 1 1 0 1 1 0 0 0 1 1 1 1 0 0 0 1 0 0
    0    0 1 1 0 1 0 1 0 1 1 0 0 1 0 1 1 1 0 0 1 0 1 1 0 0 1 1
   47    0 1 0 0 1 0 0 1 0 1 0 1 1 1 1 1 1 1 1 1 1 1 0 0 1 1 0 0 1 0 0 0 0 1 1 0 1 1 1 1 1 0 0 1 0 1 0 1 1 1 0
    0    1 1 1 0 0 0 0 0 0 0 1 1 0 1 1 0 1 0 1 1 0 1 1 1 0 1 1 0 0 0 0 0 1 1 1 0 1 1 0 0 0 1 1 1 1 0 0 0 1 0 0
    0    0 1 1 0 1 0 1 0 1 1 0 0 0 0 0 1 1 0 0 1 0 1 1 0 0 1 1
   48    0 1 0 0 1 0 0 1 0 1 0 1 0 1 1 1 1 1 0 1 1 1 0 0 1 1 1 0 1 0 0 0 0 0 1 0 1 1 1 1 1 0 0 1 0 1 0 1 1 1 0
    0    1 1 1 0 0 0 0 0 0 1 0 1 0 1 1 0 1 0 0 1 0 1 1 0 0 1 1 0 0 0 0 0 0 1 1 0 1 1 0 0 0 1 1 1 1 0 0 0 1 0 0
    0    0 1 1 0 1 0 1 0 1 1 0 0 0 0 1 1 1 0 0 1 0 1 1 0 0 1 1
   49    0 1 0 0 1 0 0 1 0 1 0 1 0 1 1 1 1 1 1 1 0 1 0 0 1 0 1 0 1 0 1 0 1 1 1 0 1 1 1 1 1 0 0 1 0 1 0 1 1 1 0
    0    1 1 1 0 0 0 0 0 0 1 0 1 0 1 1 0 1 0 1 1 0 0 1 1 0 1 1 0 0 0 0 0 0 1 1 0 1 1 0 0 0 1 1 1 1 0 0 0 1 0 0
    0    0 1 1 0 1 0 1 0 1 1 0 1 0 0 0 1 1 0 0 1 0 1 1 0 0 1 1
   50    0 1 0 0 1 0 0 1 0 1 0 1 0 1 1 0 1 1 1 1 0 1 0 0 1 1 0 0 1 0 1 0 1 0 0 0 1 1 1 1 1 0 0 1 0 1 0 1 1 1 0
    0    1 1 1 0 0 0 0 0 0 0 0 1 0 1 1 0 1 0 1 1 0 1 1 0 0 1 1 0 0 0 0 0 0 1 1 0 1 1 0 0 0 1 1 1 1 0 0 0 1 0 0
    0    0 1 1 0 1 0 1 0 1 1 0 1 0 0 1 1 1 0 0 1 0 1 1 0 0 1 1
   51    0 1 0 0 1 0 0 1 0 1 0 1 0 1 1 1 1 1 1 0 1 1 0 0 1 1 0 0 1 0 0 0 0 0 1 0 1 1 1 1 1 0 0 1 0 1 0 1 1 1 0
    0    1 1 1 0 0 0 0 0 0 1 0 1 0 0 1 0 1 0 0 1 0 1 1 0 0 1 1 0 0 0 0 0 0 1 1 0 1 0 0 0 0 1 1 1 1 0 0 0 1 0 0
    0    0 1 1 0 1 0 1 0 1 1 0 0 1 0 1 1 1 0 0 1 0 1 1 0 0 1 1
   52    0 1 0 0 1 0 0 1 0 1 0 1 0 1 1 1 1 0 1 1 1 1 0 0 1 1 1 0 1 0 0 0 1 1 0 0 0 1 1 1 1 0 0 1 0 1 0 1 1 1 0
    0    1 1 1 0 0 0 0 0 0 1 0 1 0 1 1 0 1 0 0 0 0 1 1 0 0 1 1 0 0 0 0 0 0 1 1 0 1 1 0 0 0 1 1 1 1 0 0 0 1 0 0
    0    0 1 1 0 1 0 1 0 1 1 0 0 0 0 0 1 1 0 0 1 0 1 1 0 0 1 1
   53    0 1 0 0 1 0 0 1 0 1 0 1 0 1 1 1 1 1 1 1 0 1 0 0 1 1 1 0 1 0 0 0 1 0 1 0 1 1 1 1 1 0 0 1 0 1 0 1 1 1 0
    0    1 1 1 0 0 0 0 0 0 1 0 1 0 1 1 0 1 0 0 1 1 1 1 0 0 1 1 0 0 0 0 0 1 1 0 0 1 1 0 0 0 1 1 1 1 0 0 0 1 0 0
    0    0 1 1 0 1 0 1 0 1 1 0 0 0 0 0 0 1 0 0 1 0 1 1 0 0 1 1
   54    0 1 0 0 1 0 0 1 0 1 0 1 0 1 1 1 1 1 1 1 1 1 0 0 1 1 1 0 1 0 0 0 0 1 1 0 1 1 1 1 1 0 0 1 0 1 0 1 1 1 0
    0    1 1 1 0 0 0 0 0 0 1 0 0 0 1 1 0 1 0 1 1 0 1 1 1 0 1 1 0 0 0 0 0 1 1 1 0 1 1 1 0 0 1 1 1 1 0 0 0 1 0 0
    0    0 1 1 0 1 0 1 0 1 1 0 0 0 0 1 1 1 0 0 1 0 1 1 0 0 1 1
   8800000.00000000        1618033.00000000       0.000000000000000E+000
  1.136363636363636E-007   7184079.00000000        5617365.00000000     
           1          12          43
   8244642.00000000        7765363.00000000        4512829.00000000     
   1234527.00000000        8397129.00000000        4980025.00000000     
   6644143.00000000        1326833.00000000        1737986.00000000     
   7796909.00000000        8790756.00000000        7184079.00000000     
   4228824.00000000        654993.000000000        7001254.00000000     
   573630.000000000        3750144.00000000        2466566.00000000     
   8367704.00000000        5807166.00000000        6176438.00000000     
   2923206.00000000        5316750.00000000        3131120.00000000     
   5255819.00000000        5181114.00000000        8272858.00000000     
   3212872.00000000        7628577.00000000        8680638.00000000     
   3395159.00000000        3447047.00000000        2188505.00000000     
   5813143.00000000        7270466.00000000        6060158.00000000     
   1002560.00000000        241291.000000000        4000901.00000000     
   6110302.00000000        4000552.00000000        5972096.00000000     
   1025725.00000000        1934986.00000000        2723567.00000000     
   524153.000000000        6270901.00000000        7918997.00000000     
   1384847.00000000        2672959.00000000        7219463.00000000     
   323868.000000000        3181389.00000000        3781159.00000000     
   8549674.00000000     
   8800000.00000000        1618033.00000000       0.000000000000000E+000
  1.136363636363636E-007   2252922.00000000        5672701.00000000     
           1          32           8
   4475648.00000000        4396478.00000000        4189410.00000000     
   4887102.00000000        4262275.00000000        4093620.00000000     
   4767904.00000000        4307810.00000000        827172.000000000     
   1872082.00000000        9738.00000000000        1626024.00000000     
   3285487.00000000        7638165.00000000        907102.000000000     
   2334579.00000000        7495517.00000000        1668968.00000000     
   4476119.00000000        6939843.00000000        2488669.00000000     
   6639482.00000000        5748040.00000000        209622.000000000     
   325606.000000000        4995046.00000000        531901.000000000     
   4130675.00000000        4810902.00000000        1062716.00000000     
   5111981.00000000        2252922.00000000        1019835.00000000     
   1661944.00000000        3665746.00000000        808670.000000000     
   7813570.00000000        4462291.00000000        14797.0000000000     
   2108393.00000000        4581250.00000000        3269582.00000000     
   5037436.00000000        2687816.00000000        8190794.00000000     
   3666074.00000000        1449130.00000000        4603341.00000000     
   6258770.00000000        6310237.00000000        3478150.00000000     
   1048550.00000000        1437901.00000000        2382703.00000000     
   6024307.00000000     
