          92          54
    1    0 1 0 0 1 1 0 0 1 1 1 1 0 0 0 1 1 1 1 0 0 1 0 0 1 0 1 0 1 1 1 0 1 1 0 0 1 1 1 1 1 0 1 0 0 0 0 1 0 1 0
    1    1 1 1 0 1 0 1 0 1 0 0 1 1 1 1 1 1 1 1 0 0 1 1 0 1 1 1 0 0 1 0 0 0 1 1 0 0 1 0 0 0 1 1 1 1 0 0 0 1 0 0
    0    0 1 1 1 1 1 0 0 1 0 0 1 0 1 1 0 1 1 0 0 0 1 1 0 0 1 0
    2    0 1 0 0 1 1 0 0 1 1 1 1 0 0 1 1 1 1 1 0 0 1 0 0 1 0 1 0 1 1 1 1 1 1 0 1 1 1 1 1 1 0 1 0 0 0 0 1 0 1 0
    1    1 1 1 0 1 1 0 0 1 1 0 1 1 1 1 0 1 1 1 0 0 1 1 1 1 1 1 0 0 1 0 0 0 1 1 0 0 0 0 0 0 1 1 1 1 0 0 0 1 0 0
    0    0 1 1 1 1 1 0 0 1 0 0 1 0 0 1 0 1 1 1 0 0 1 1 0 0 1 0
    3    0 1 0 0 1 1 0 0 1 1 1 1 0 0 0 1 1 1 1 0 0 1 0 0 1 0 1 0 1 1 0 0 1 1 1 0 1 1 1 1 1 0 1 0 0 0 0 1 0 1 0
    1    1 1 1 0 1 0 1 0 1 0 0 1 1 1 1 1 1 1 1 0 0 1 1 0 1 1 1 0 0 1 0 0 0 0 1 0 1 1 0 0 0 1 1 1 1 0 0 0 1 0 0
    0    0 1 1 1 1 1 0 0 1 0 0 1 0 1 1 0 1 1 0 1 0 1 1 0 0 1 0
    4    0 1 0 0 1 1 0 0 1 1 1 1 0 0 0 1 1 1 1 0 0 0 0 0 1 0 1 0 1 0 0 0 1 1 1 0 1 1 1 1 1 0 1 0 0 0 0 1 0 1 0
    1    1 1 1 0 1 0 1 0 0 0 0 0 1 1 1 1 1 1 1 0 0 1 1 0 1 1 1 0 0 1 0 0 0 1 1 0 0 1 0 0 0 1 1 1 1 0 0 0 1 0 0
    0    0 1 1 1 1 1 0 0 1 0 0 1 0 1 1 0 1 1 0 1 0 1 1 0 0 1 0
    5    0 1 0 0 1 1 0 0 1 1 1 1 0 0 1 1 1 1 1 0 0 1 0 0 1 0 1 0 1 1 1 0 1 1 0 0 1 1 1 1 1 0 1 0 0 0 0 1 0 1 0
    1    1 1 1 0 1 0 1 0 1 1 0 1 1 1 1 1 1 0 0 0 0 1 1 0 1 1 1 0 0 1 0 0 0 1 1 0 0 1 0 1 1 1 1 1 1 0 0 0 1 0 0
    0    0 1 1 1 1 1 0 0 1 0 0 1 0 1 1 0 1 1 0 0 0 1 1 0 0 1 0
    6    0 1 0 0 1 1 0 0 1 1 1 1 0 0 1 0 1 1 1 0 0 0 0 0 1 0 1 0 1 1 1 1 1 1 1 0 1 1 1 1 1 0 1 0 0 0 0 1 0 1 0
    1    1 1 1 0 1 0 1 0 0 0 0 1 1 1 1 0 1 0 1 0 0 1 1 0 1 1 1 0 0 1 0 0 0 1 1 0 1 1 0 1 0 1 1 1 1 0 0 0 1 0 0
    0    0 1 1 1 1 1 0 0 1 0 0 1 0 0 1 0 1 1 0 0 0 1 1 0 0 1 0
    7    0 1 0 0 1 1 0 0 1 1 1 1 0 0 1 1 1 1 1 0 0 0 0 0 1 0 1 0 1 0 0 1 1 1 0 0 1 1 1 1 1 0 1 0 0 0 0 1 0 1 0
    1    1 1 1 0 1 0 1 0 0 0 0 0 1 1 1 1 1 1 1 0 0 1 1 0 1 1 1 0 0 1 0 0 0 1 1 0 0 1 0 0 0 1 1 1 1 0 0 0 1 0 0
    0    0 1 1 1 1 1 0 0 1 0 0 1 0 1 1 0 1 1 0 1 0 1 1 0 0 1 0
    8    0 1 0 0 1 1 0 0 1 1 1 1 0 0 1 1 1 1 1 0 0 1 0 0 1 0 1 0 0 1 1 0 1 1 1 0 1 1 1 1 1 0 1 0 0 0 0 1 0 1 0
    1    1 1 1 0 1 0 1 0 1 0 0 0 1 1 1 0 1 1 1 0 0 1 1 0 1 1 1 0 0 1 0 0 0 0 1 1 0 1 1 0 0 1 1 1 1 0 0 0 1 0 0
    0    0 1 1 1 1 1 0 0 1 0 0 1 0 1 1 0 1 1 0 1 0 1 1 0 0 1 0
    9    0 1 0 0 1 1 0 0 1 1 1 1 0 0 0 1 1 1 1 0 0 1 0 0 1 0 1 0 1 1 0 1 1 1 1 0 1 1 1 1 1 0 1 0 0 0 0 1 0 1 0
    1    1 1 1 0 1 0 1 0 1 0 1 1 1 1 1 1 1 1 1 0 0 1 1 0 1 1 1 0 0 1 0 0 0 0 1 0 0 0 0 0 0 0 1 1 1 0 0 0 1 0 0
    0    0 1 1 1 1 1 0 0 1 0 0 1 0 0 1 0 1 1 0 1 0 1 1 0 0 1 0
   10    0 1 0 0 1 1 0 0 1 1 1 1 0 0 1 1 1 1 1 0 0 1 0 0 1 0 1 0 1 1 1 0 1 1 0 0 1 1 1 1 1 0 1 0 0 0 0 1 0 1 0
    1    1 1 1 0 1 1 0 0 1 1 0 1 0 1 1 1 1 1 1 0 0 1 1 0 1 1 1 0 0 1 0 0 0 1 1 0 0 1 0 0 1 1 1 1 1 0 0 0 1 0 0
    0    0 1 1 1 1 1 0 0 1 0 0 1 0 0 1 0 1 1 1 0 0 1 1 0 0 1 0
   11    0 1 0 0 1 1 0 0 1 1 1 1 0 0 1 1 1 1 1 0 0 0 0 0 1 0 1 0 1 1 1 1 1 1 0 1 1 1 1 1 1 0 1 0 0 0 0 1 0 1 0
    1    1 1 1 0 1 1 0 0 1 1 0 1 1 1 1 1 1 1 0 0 0 1 1 1 1 1 1 0 0 1 0 0 0 1 1 0 0 0 1 1 0 1 1 1 1 0 0 0 1 0 0
    0    0 1 1 1 1 1 0 0 1 0 0 1 0 0 1 0 1 1 1 1 0 1 1 0 0 1 0
   12    0 1 0 0 1 1 0 0 1 1 1 1 0 1 1 1 1 1 0 0 0 0 0 0 1 0 1 0 1 1 0 0 1 1 1 0 1 1 1 1 1 0 1 0 0 0 0 1 0 1 0
    1    1 1 1 0 1 0 1 0 0 0 0 0 1 1 1 1 1 1 1 0 1 1 1 0 1 1 1 0 0 1 0 0 0 1 1 0 0 1 0 0 0 1 1 1 1 0 0 0 1 0 0
    0    0 1 1 1 1 1 0 0 1 0 0 1 0 1 0 0 1 1 0 1 0 1 1 0 0 1 0
   13    0 1 0 0 1 1 0 0 1 1 1 1 0 0 0 1 0 1 1 0 0 0 0 0 1 0 1 0 1 1 1 1 1 1 1 0 1 1 1 1 1 0 1 0 0 0 0 1 0 1 0
    1    1 1 1 0 1 0 1 0 1 0 0 1 1 0 1 1 1 0 1 0 0 1 1 0 1 1 1 0 0 1 0 0 0 0 1 0 0 0 0 1 0 1 1 1 1 0 0 0 1 0 0
    0    0 1 1 1 1 1 0 0 1 0 0 1 0 0 1 0 1 1 0 0 0 1 1 0 0 1 0
   14    0 1 0 0 1 1 0 0 1 1 1 1 0 0 0 1 1 1 1 0 0 0 0 0 1 0 1 0 1 1 1 1 1 1 1 0 1 1 1 1 1 0 1 0 0 0 0 1 0 1 0
    1    1 1 1 0 1 0 1 0 0 0 0 0 1 1 1 1 1 0 1 0 0 1 1 0 1 1 1 0 0 1 0 0 0 1 1 0 0 0 0 1 0 1 1 1 1 0 0 0 1 0 0
    0    0 1 1 1 1 1 0 0 1 0 0 1 0 1 1 0 0 1 0 1 0 1 1 0 0 1 0
   15    0 1 0 0 1 1 0 0 1 1 1 1 0 0 1 1 1 1 1 0 0 0 0 0 1 0 1 0 1 0 0 0 1 1 0 1 1 1 1 1 1 0 1 0 0 0 0 1 0 1 0
    1    1 1 1 0 1 0 1 0 0 0 1 0 1 1 1 1 1 1 0 0 0 1 1 1 1 1 1 0 0 1 0 0 0 1 1 0 0 1 0 0 0 1 1 1 1 0 0 0 1 0 0
    0    0 1 1 1 1 1 0 0 1 0 0 1 0 1 1 0 1 1 0 1 0 1 1 0 0 1 0
   16    0 1 0 0 1 1 0 0 1 1 1 1 0 0 1 0 0 1 1 0 0 1 0 0 1 0 1 0 1 1 1 1 1 1 1 0 0 1 1 1 1 0 1 0 0 0 0 1 0 1 0
    1    1 1 1 0 1 0 0 0 1 1 0 1 1 1 1 1 1 1 1 0 0 1 1 1 1 1 1 0 0 1 0 0 0 1 0 0 0 0 0 1 1 1 1 1 1 0 0 0 1 0 0
    0    0 1 1 1 1 1 0 0 1 0 0 1 0 0 1 0 1 1 1 0 0 1 1 0 0 1 0
   17    0 1 0 0 1 1 0 0 1 1 1 1 0 0 1 1 1 1 1 0 0 1 0 0 1 0 1 0 1 1 1 0 1 1 0 0 0 1 1 1 1 0 1 0 0 0 0 1 0 1 0
    1    1 1 1 0 1 0 1 0 1 1 0 0 0 1 1 1 1 0 0 0 0 1 0 0 1 1 1 0 0 1 0 0 0 1 1 0 0 0 0 1 0 1 1 1 1 0 0 0 1 0 0
    0    0 1 1 1 1 1 0 0 1 0 0 1 0 1 1 0 1 1 1 0 0 1 1 0 0 1 0
   18    0 1 0 0 1 1 0 0 1 1 1 1 0 0 1 1 1 0 1 1 0 0 0 0 1 0 1 0 1 1 0 0 1 1 1 0 1 1 1 1 1 0 1 0 0 0 0 1 0 1 0
    1    1 1 1 0 1 0 1 0 0 0 0 1 1 1 1 1 1 1 1 0 0 1 1 0 1 1 1 0 0 1 0 0 0 1 1 1 0 1 1 1 0 1 1 1 1 0 0 0 1 0 0
    0    0 1 1 1 1 1 0 0 1 0 0 1 0 1 1 0 1 1 0 1 0 1 1 0 0 1 0
   19    0 1 0 0 1 1 0 0 1 1 1 1 0 0 1 1 1 1 0 0 0 0 0 0 1 0 1 0 1 1 0 0 1 1 1 0 1 1 1 1 1 0 1 0 0 0 0 1 0 1 0
    1    1 1 1 0 1 0 1 0 1 0 0 0 1 1 1 0 1 1 1 0 0 1 1 0 1 1 1 0 0 1 0 0 0 0 1 1 0 1 0 0 0 1 1 1 1 0 0 0 1 0 0
    0    0 1 1 1 1 1 0 0 1 0 0 1 0 1 1 0 1 1 0 1 0 1 1 0 0 1 0
   20    0 1 0 0 1 1 0 0 1 1 1 1 0 1 1 1 1 1 1 0 0 1 0 0 1 0 1 0 0 1 1 0 1 1 1 0 1 1 1 1 1 0 1 0 0 0 0 1 0 1 0
    1    1 1 1 0 1 0 1 0 0 0 0 0 1 1 1 1 1 1 1 0 1 1 1 0 1 1 1 0 0 1 0 0 0 1 1 0 0 1 1 0 0 1 1 1 1 0 0 0 1 0 0
    0    0 1 1 1 1 1 0 0 1 0 0 1 0 1 1 0 1 1 0 1 0 1 1 0 0 1 0
   21    0 1 0 0 1 1 0 0 1 1 1 1 0 0 1 1 1 1 1 0 0 1 0 0 1 0 1 0 1 1 0 0 1 1 0 0 1 1 1 1 1 0 1 0 0 0 0 1 0 1 0
    1    1 1 1 0 1 1 0 0 1 0 0 1 1 1 1 1 1 1 1 0 0 1 1 0 1 1 1 0 0 1 0 0 0 1 1 0 0 1 0 0 0 1 1 1 1 0 0 0 1 0 0
    0    0 1 1 1 1 1 0 0 1 0 0 1 0 1 1 0 1 1 0 0 0 1 1 0 0 1 0
   22    0 1 0 0 1 1 0 0 1 1 1 1 0 0 0 1 0 1 1 0 0 1 0 0 1 0 1 0 1 1 1 1 1 0 1 0 1 1 1 1 1 0 1 0 0 0 0 1 0 1 0
    1    1 1 1 0 1 0 1 0 1 1 0 1 1 0 0 1 1 0 1 0 0 1 1 0 1 1 1 0 0 1 0 0 0 1 1 0 0 0 0 0 0 1 1 1 1 0 0 0 1 0 0
    0    0 1 1 1 1 1 0 0 1 0 0 1 0 0 1 0 1 1 0 0 0 1 1 0 0 1 0
   23    0 1 0 0 1 1 0 0 1 1 1 1 0 0 1 1 1 1 0 0 0 1 0 0 1 0 1 0 1 1 1 0 1 1 0 0 1 1 1 1 1 0 1 0 0 0 0 1 0 1 0
    1    1 1 1 0 1 1 1 0 1 1 0 1 1 1 1 1 1 1 1 0 0 1 1 0 1 1 1 0 0 1 0 0 0 1 1 0 0 1 0 0 0 1 1 1 1 0 0 0 1 0 0
    0    0 1 1 1 1 1 0 0 1 0 1 0 0 1 1 0 1 1 0 0 0 1 1 0 0 1 0
   24    0 1 0 0 1 1 0 0 1 1 1 1 0 0 1 1 1 1 1 0 0 0 0 0 1 0 1 0 1 1 0 1 1 1 1 0 0 1 1 1 1 0 1 0 0 0 0 1 0 1 0
    1    1 1 1 0 1 0 1 0 1 1 0 1 0 1 1 1 1 0 0 0 0 1 1 0 1 1 1 0 0 1 0 0 0 1 1 0 0 1 0 0 1 1 1 1 1 0 0 0 1 0 0
    0    0 1 1 1 1 1 0 0 1 0 0 1 0 1 1 0 1 1 1 0 0 1 1 0 0 1 0
   25    0 1 0 0 1 1 0 0 1 1 1 1 0 0 1 1 0 1 0 0 0 1 0 0 1 0 1 0 1 1 1 1 1 1 1 0 1 1 1 1 1 0 1 0 0 0 0 1 0 1 0
    1    1 1 1 0 1 0 1 0 1 0 0 1 1 1 1 1 1 1 1 0 0 1 1 1 1 1 1 0 0 1 0 0 0 0 0 0 1 1 0 1 1 1 1 1 1 0 0 0 1 0 0
    0    0 1 1 1 1 1 0 0 1 0 0 1 0 1 1 0 1 1 0 1 0 1 1 0 0 1 0
   26    0 1 0 0 1 1 0 0 1 1 1 1 0 0 0 1 0 1 1 0 0 0 0 0 1 0 1 0 1 1 1 0 1 1 0 0 1 1 1 1 1 0 1 0 0 0 0 1 0 1 0
    1    1 1 1 0 1 0 1 0 1 0 0 1 1 1 1 1 1 1 1 0 0 1 1 0 1 1 1 0 0 1 0 0 0 1 1 0 0 1 0 1 1 1 1 1 1 0 0 0 1 0 0
    0    0 1 1 1 1 1 0 0 1 0 0 1 0 1 1 0 1 1 0 0 0 1 1 0 0 1 0
   27    0 1 0 0 1 1 0 0 1 1 1 1 0 0 0 1 1 1 1 0 0 0 0 0 1 0 1 0 1 1 1 1 1 1 1 0 1 1 1 1 1 0 1 0 0 0 0 1 0 1 0
    1    1 1 1 0 1 0 1 0 1 0 0 1 1 1 1 1 1 0 1 0 0 1 1 0 1 1 1 0 0 1 0 0 0 1 1 1 0 0 0 0 0 1 1 1 1 0 0 0 1 0 0
    0    0 1 1 1 1 1 0 0 1 0 0 1 0 0 1 0 1 1 0 1 0 1 1 0 0 1 0
   28    0 1 0 0 1 1 0 0 1 1 1 1 0 0 1 1 0 0 1 1 0 0 0 0 1 0 1 0 1 1 0 0 1 1 1 0 1 1 1 1 1 0 1 0 0 0 0 1 0 1 0
    1    1 1 1 0 1 0 1 0 0 0 0 1 1 0 1 1 1 1 1 1 0 1 1 0 1 1 1 0 0 1 0 0 0 0 1 0 0 1 0 1 0 1 1 1 1 0 0 0 1 0 0
    0    0 1 1 1 1 1 0 0 1 0 0 1 0 1 1 0 1 1 0 0 0 1 1 0 0 1 0
   29    0 1 0 0 1 1 0 0 1 1 1 1 0 0 1 0 1 1 1 0 0 0 0 0 1 0 1 0 1 1 0 1 1 1 1 0 1 1 1 1 1 0 1 0 0 0 0 1 0 1 0
    1    1 1 1 0 1 0 1 0 0 0 0 0 1 1 1 0 1 1 1 0 0 1 1 0 1 1 1 0 0 1 0 0 0 1 1 1 1 1 0 0 0 1 1 1 1 0 0 0 1 0 0
    0    0 1 1 1 1 1 0 0 1 0 0 1 0 1 1 0 1 1 0 0 0 1 1 0 0 1 0
   30    0 1 0 0 1 1 0 0 1 1 1 1 0 0 0 1 1 1 1 0 0 0 0 0 1 0 1 0 1 1 1 0 1 1 1 0 1 1 1 1 1 0 1 0 0 0 0 1 0 1 0
    1    1 1 1 0 1 0 1 0 1 0 0 1 1 1 1 1 1 1 1 0 0 1 1 0 1 1 1 0 0 1 0 0 0 1 1 0 0 1 1 0 0 1 1 1 1 0 0 0 1 0 0
    0    0 1 1 1 1 1 0 0 1 0 0 1 0 0 1 0 1 1 0 0 0 1 1 0 0 1 0
   31    0 1 0 0 1 1 0 0 1 1 1 1 0 0 1 1 1 1 0 0 0 0 0 0 1 0 1 0 1 0 0 1 1 1 0 0 1 1 1 1 1 0 1 0 0 0 0 1 0 1 0
    1    1 1 1 0 1 0 1 0 1 0 0 0 0 1 1 1 1 0 1 0 0 1 1 0 1 1 1 0 0 1 0 0 0 1 1 0 0 1 0 0 1 1 1 1 1 0 0 0 1 0 0
    0    0 1 1 1 1 1 0 0 1 0 0 1 0 1 1 0 1 1 0 1 0 1 1 0 0 1 0
   32    0 1 0 0 1 1 0 0 1 1 1 1 0 0 1 1 1 1 0 0 0 0 0 0 1 0 1 0 1 1 1 1 1 1 1 0 0 1 1 1 1 0 1 0 0 0 0 1 0 1 0
    1    1 1 1 0 1 0 1 0 1 1 0 1 0 1 1 1 1 1 0 0 0 1 1 0 1 1 1 0 0 1 0 0 0 1 1 0 0 1 0 0 1 1 1 1 1 0 0 0 1 0 0
    0    0 1 1 1 1 1 0 0 1 0 1 0 0 1 1 0 1 1 0 0 0 1 1 0 0 1 0
   33    0 1 0 0 1 1 0 0 1 1 1 1 0 0 0 1 1 1 1 0 0 1 0 0 1 0 1 0 1 1 1 0 1 1 0 0 1 1 1 1 1 0 1 0 0 0 0 1 0 1 0
    1    1 1 1 0 1 0 0 0 1 1 0 0 1 1 1 1 1 1 1 0 0 1 1 0 1 1 1 0 0 1 0 0 1 1 1 0 0 1 0 0 0 1 1 1 1 0 0 0 1 0 0
    0    0 1 1 1 1 1 0 0 1 0 0 1 0 1 1 0 1 0 0 0 0 1 1 0 0 1 0
   34    0 1 0 0 1 1 0 0 1 1 1 0 0 0 1 1 1 1 1 0 0 0 0 0 1 0 1 0 0 1 1 0 1 1 0 0 1 1 1 1 1 0 1 0 0 0 0 1 0 1 0
    1    1 1 1 0 1 0 1 0 1 0 0 1 1 1 1 1 1 1 1 0 0 1 1 0 1 1 1 0 0 1 0 0 0 1 1 0 0 1 0 0 0 1 1 1 1 0 0 0 1 0 0
    0    0 1 1 1 1 1 0 0 1 0 0 0 1 0 1 0 1 1 0 0 0 1 1 0 0 1 0
   35    0 1 0 0 1 1 0 0 1 1 1 1 0 0 0 1 1 1 1 0 0 1 0 0 1 0 1 0 1 1 1 0 1 1 0 0 1 1 1 1 1 0 1 0 0 0 0 1 0 1 0
    1    1 1 1 0 1 0 1 0 1 0 0 1 1 1 1 1 1 1 1 0 0 1 1 0 1 1 1 0 0 1 0 0 0 1 1 0 0 1 0 0 0 1 1 1 1 0 0 0 1 0 0
    0    0 1 1 1 1 1 0 0 1 0 0 1 0 1 1 0 1 1 0 0 0 1 1 0 0 1 0
   36    0 1 0 0 1 1 0 0 1 1 1 0 0 0 1 1 1 1 1 0 0 0 0 0 1 0 1 0 0 1 0 0 1 1 0 0 1 1 1 1 1 0 1 0 0 0 0 1 0 1 0
    1    1 1 1 0 1 0 1 0 1 0 0 1 1 1 1 1 1 0 1 0 0 1 1 0 0 1 1 0 0 1 0 0 0 1 1 0 0 1 0 1 1 1 1 1 1 0 0 0 1 0 0
    0    0 1 1 1 1 1 0 0 1 0 0 1 0 0 1 0 0 0 0 1 0 1 1 0 0 1 0
   37    0 1 0 0 1 1 0 0 1 1 1 1 0 0 1 1 1 1 1 0 0 0 0 0 1 0 1 0 1 1 0 0 1 1 0 1 1 1 1 1 1 0 1 0 0 0 0 1 0 1 0
    1    1 1 1 0 1 0 1 0 0 0 0 1 1 1 1 1 1 1 0 0 0 1 1 0 1 1 1 0 0 1 0 0 1 1 1 0 0 0 0 0 0 1 1 1 1 0 0 0 1 0 0
    0    0 1 1 1 1 1 0 0 1 0 0 1 0 1 1 0 1 1 0 0 0 1 1 0 0 1 0
   38    0 1 0 0 1 1 0 0 1 1 1 1 0 0 0 1 0 1 1 0 0 1 0 0 1 0 1 0 1 1 1 0 1 0 0 0 1 1 1 1 1 0 1 0 0 0 0 1 0 1 0
    1    1 1 1 0 1 0 1 0 1 1 0 0 1 1 0 1 1 1 1 0 0 1 1 0 1 1 1 0 0 1 0 0 0 1 1 0 0 1 0 0 0 1 1 1 1 0 0 0 1 0 0
    0    0 1 1 1 1 1 0 0 1 0 0 1 0 0 1 0 1 0 0 0 0 1 1 0 0 1 0
   39    0 1 0 0 1 1 0 0 1 1 1 1 0 0 1 1 1 1 1 0 0 1 0 0 1 0 1 0 1 0 0 0 1 1 0 0 0 1 1 1 1 0 1 0 0 0 0 1 0 1 0
    1    1 1 1 0 1 0 1 0 1 0 0 0 1 1 1 1 1 1 1 0 0 1 1 0 1 1 1 0 0 1 0 0 0 1 1 0 0 0 0 1 0 1 1 1 1 0 0 0 1 0 0
    0    0 1 1 1 1 1 0 0 1 0 0 1 0 1 1 0 1 1 0 1 0 1 1 0 0 1 0
   40    0 1 0 0 1 1 0 0 1 1 1 1 0 0 1 1 1 1 0 0 0 0 0 0 1 0 1 0 1 0 0 0 1 1 1 1 1 1 1 1 1 0 1 0 0 0 0 1 0 1 0
    1    1 1 1 0 1 0 1 0 0 0 1 0 1 1 1 1 1 1 0 1 1 1 1 0 1 1 1 0 0 1 0 0 0 1 1 0 0 1 0 0 0 1 1 1 1 0 0 0 1 0 0
    0    0 1 1 1 1 1 0 0 1 0 0 1 0 1 0 0 1 1 0 1 0 1 1 0 0 1 0
   41    0 1 0 0 1 1 0 0 1 1 1 1 0 0 0 1 0 1 1 0 0 0 0 0 1 0 1 0 1 0 0 0 1 1 1 0 1 1 1 1 1 0 1 0 0 0 0 1 0 1 0
    1    1 1 1 0 1 0 1 0 1 0 0 1 1 1 1 1 1 1 1 0 0 1 1 0 1 1 1 0 0 1 0 0 0 0 1 0 0 1 0 1 0 1 1 1 1 0 0 0 1 0 0
    0    0 1 1 1 1 1 0 0 1 0 0 1 0 1 1 0 1 1 0 0 0 1 1 0 0 1 0
   42    0 1 0 0 1 1 0 0 1 1 1 1 0 0 0 1 1 1 1 0 0 0 0 0 1 0 1 0 1 1 0 1 1 1 0 1 1 1 1 1 1 0 1 0 0 0 0 1 0 1 0
    1    1 1 1 0 1 0 1 0 0 0 1 0 1 0 1 1 1 0 1 0 0 1 1 1 1 1 1 0 0 1 0 0 0 1 1 0 0 0 0 0 0 1 1 1 1 0 0 0 1 0 0
    0    0 1 1 1 1 1 0 0 1 0 0 1 0 1 1 0 0 1 0 1 0 1 1 0 0 1 0
   43    0 1 0 0 1 1 0 0 1 1 1 1 0 0 0 1 1 1 1 1 0 0 0 0 1 0 1 0 1 1 1 0 1 1 1 0 1 1 1 1 1 0 1 0 0 0 0 1 0 1 0
    1    1 1 1 0 1 0 1 0 0 0 0 0 1 1 1 1 1 1 1 1 0 1 1 0 1 1 1 0 0 1 0 0 0 1 1 1 1 1 0 0 0 1 1 1 1 0 0 0 1 0 0
    0    0 1 1 1 1 1 0 0 1 0 0 1 0 1 1 0 1 1 0 0 0 1 1 0 0 1 0
   44    0 1 0 0 1 1 0 0 1 1 1 1 0 0 0 1 0 1 1 0 0 1 0 0 1 0 1 0 1 1 1 1 1 1 0 0 1 1 1 1 1 0 1 0 0 0 0 1 0 1 0
    1    1 1 1 0 1 1 0 0 1 1 0 1 1 0 1 1 1 0 1 0 0 1 1 0 1 1 1 0 0 1 0 0 0 0 1 0 0 0 0 1 0 1 1 1 1 0 0 0 1 0 0
    0    0 1 1 1 1 1 0 0 1 0 0 1 1 0 1 0 0 1 0 0 0 1 1 0 0 1 0
   45    0 1 0 0 1 1 0 0 1 1 1 1 0 0 1 1 1 1 1 0 0 0 0 0 1 0 1 0 1 1 1 0 1 1 0 0 1 1 1 1 1 0 1 0 0 0 0 1 0 1 0
    1    1 1 1 0 1 0 1 0 1 0 0 0 1 1 1 1 1 0 1 0 0 1 1 0 1 1 1 0 0 1 0 0 0 1 1 0 0 1 0 1 0 1 1 1 1 0 0 0 1 0 0
    0    0 1 1 1 1 1 0 0 1 0 0 1 0 1 1 0 1 1 0 0 0 1 1 0 0 1 0
   46    0 1 0 0 1 1 0 0 1 1 1 1 0 0 1 1 1 1 1 1 0 0 0 0 1 0 1 0 1 1 0 0 1 1 1 0 1 1 1 1 1 0 1 0 0 0 0 1 0 1 0
    1    1 1 1 0 1 0 1 0 1 0 0 1 1 1 1 1 1 1 1 0 0 0 1 0 0 1 1 0 0 1 0 0 0 1 1 0 0 1 0 1 0 1 1 1 1 0 0 0 1 0 0
    0    0 1 1 1 1 1 0 0 1 0 0 1 0 0 1 0 1 0 0 1 0 1 1 0 0 1 0
   47    0 1 0 0 1 1 0 0 1 1 1 1 0 0 1 1 1 1 1 0 0 0 0 0 1 0 1 0 0 1 1 0 1 1 0 0 1 1 1 1 1 0 1 0 0 0 0 1 0 1 0
    1    1 1 1 0 1 0 1 0 1 0 0 1 1 1 1 1 1 1 1 0 0 1 1 0 1 1 1 0 0 1 0 0 0 1 1 0 0 1 1 0 0 1 1 1 1 0 0 0 1 0 0
    0    0 1 1 1 1 1 0 0 1 0 1 0 0 0 1 0 1 1 0 0 0 1 1 0 0 1 0
   48    0 1 0 0 1 1 0 0 1 1 1 0 0 0 1 1 1 1 1 0 0 1 0 0 1 0 1 0 1 1 1 0 1 1 0 0 1 1 1 1 1 0 1 0 0 0 0 1 0 1 0
    1    1 1 1 0 1 1 0 0 1 1 0 1 0 1 1 1 1 1 1 0 0 1 1 0 1 1 1 0 0 1 0 0 0 1 1 0 0 1 0 0 1 1 1 1 1 0 0 0 1 0 0
    0    0 1 1 1 1 1 0 0 1 0 0 1 1 0 1 0 0 1 1 0 0 1 1 0 0 1 0
   49    0 1 0 0 1 1 0 0 1 1 1 1 0 0 0 1 1 1 1 0 0 0 0 0 1 0 1 0 1 1 0 1 1 1 1 0 1 1 1 1 1 0 1 0 0 0 0 1 0 1 0
    1    1 1 1 0 1 0 1 0 0 0 0 0 1 1 0 0 1 1 1 0 0 1 1 0 0 1 1 0 0 1 0 0 0 1 1 1 1 1 0 0 0 1 1 1 1 0 0 0 1 0 0
    0    0 1 1 1 1 1 0 0 1 0 0 1 0 1 1 0 0 1 0 0 0 1 1 0 0 1 0
   50    0 1 0 0 1 1 0 0 1 1 1 1 0 0 0 1 1 1 1 0 0 1 0 0 1 0 1 0 1 1 1 1 1 1 1 0 1 1 1 1 1 0 1 0 0 0 0 1 0 1 0
    1    1 1 1 0 1 0 0 0 0 1 0 0 1 1 1 1 1 0 1 0 0 1 1 0 1 1 1 0 0 1 0 0 1 1 1 0 0 1 0 0 0 1 1 1 1 0 0 0 1 0 0
    0    0 1 1 1 1 1 0 0 1 0 0 1 0 1 1 0 1 0 0 0 0 1 1 0 0 1 0
   51    0 1 0 0 1 1 0 0 1 1 1 1 0 0 0 1 1 1 1 0 0 0 0 0 1 0 1 0 1 1 1 0 1 1 0 0 1 1 1 1 1 0 1 0 0 0 0 1 0 1 0
    1    1 1 1 0 1 0 1 0 1 0 0 1 1 1 1 1 1 1 1 1 0 1 1 0 1 1 1 0 0 1 0 0 0 1 1 0 0 1 0 0 0 1 1 1 1 0 0 0 1 0 0
    0    0 1 1 1 1 1 0 0 1 0 0 0 0 1 1 0 1 1 0 0 0 1 1 0 0 1 0
   52    0 1 0 0 1 1 0 0 1 1 1 0 0 0 1 1 1 1 1 0 0 1 0 0 1 0 1 0 0 1 1 0 1 1 0 0 1 1 1 1 1 0 1 0 0 0 0 1 0 1 0
    1    1 1 1 0 1 0 1 0 1 0 0 1 1 1 1 1 1 1 0 0 0 1 1 0 1 1 1 0 0 1 0 0 0 1 1 0 0 1 0 0 0 1 1 1 1 0 0 0 1 0 0
    0    0 1 1 1 1 1 0 0 1 0 0 1 1 0 1 0 1 1 0 0 0 1 1 0 0 1 0
   53    0 1 0 0 1 1 0 0 1 1 1 1 0 0 1 1 1 1 1 0 0 0 0 0 1 0 1 0 1 1 0 0 1 1 0 0 1 1 1 1 1 0 1 0 0 0 0 1 0 1 0
    1    1 1 1 0 1 0 0 0 1 0 1 1 1 1 1 1 1 1 1 0 0 1 1 1 1 1 1 0 0 1 0 0 0 1 1 0 0 0 0 0 0 1 1 1 1 0 0 0 1 0 0
    0    0 1 1 1 1 1 0 0 1 0 0 1 0 1 1 0 1 1 0 0 0 1 1 0 0 1 0
   54    0 1 0 0 1 1 0 0 1 1 1 1 0 0 1 1 1 1 1 0 0 0 0 0 1 0 1 0 1 1 0 0 1 1 1 0 1 1 1 1 1 0 1 0 0 0 0 1 0 1 0
    1    1 1 1 0 1 0 1 0 0 0 0 0 1 1 1 1 1 1 1 0 1 1 1 0 1 1 1 0 0 1 0 0 0 1 1 0 0 1 0 0 0 1 1 1 1 0 0 0 1 0 0
    0    0 1 1 1 1 1 0 0 1 0 0 1 0 1 1 0 1 1 0 1 0 1 1 0 0 1 0
   8800000.00000000        1618033.00000000       0.000000000000000E+000
  1.136363636363636E-007   1331024.00000000        5617365.00000000     
           1           1          32
   1331024.00000000        3160276.00000000        4782551.00000000     
   777659.000000000        8331157.00000000        2894255.00000000     
   5961880.00000000        1719349.00000000        7886616.00000000     
   824604.000000000        5566036.00000000        4327783.00000000     
   5994963.00000000        6668206.00000000        5848897.00000000     
   8336418.00000000        151442.000000000        6948158.00000000     
   4913022.00000000        61329.0000000000        1784696.00000000     
   1358367.00000000        5817839.00000000        6837024.00000000     
   5539511.00000000        379804.000000000        4732190.00000000     
   3645156.00000000        8519088.00000000        6690930.00000000     
   7102894.00000000        7282899.00000000        4160450.00000000     
   7664517.00000000        3759960.00000000        4073543.00000000     
   8339501.00000000        41224.0000000000        1512192.00000000     
   2454144.00000000        4410049.00000000        5119869.00000000     
   1827189.00000000        826955.000000000        1697063.00000000     
   1489427.00000000        2395634.00000000        3245422.00000000     
   8020242.00000000        527379.000000000        5897475.00000000     
   3710804.00000000        993751.000000000        5457836.00000000     
   7736989.00000000     
   8800000.00000000        1618033.00000000       0.000000000000000E+000
  1.136363636363636E-007   6308321.00000000        5672701.00000000     
           1           7          38
   6107579.00000000        5899334.00000000        3222355.00000000     
   6628078.00000000        8578338.00000000        5656834.00000000     
   6308321.00000000        513399.000000000        4178329.00000000     
   6816828.00000000        6189576.00000000        1389737.00000000     
   131357.000000000        4866192.00000000        2224067.00000000     
   6980166.00000000        4123050.00000000        1163486.00000000     
   54968.0000000000        7920722.00000000        5776121.00000000     
   5857505.00000000        2877271.00000000        1777071.00000000     
   3759175.00000000        6769749.00000000        7627976.00000000     
   801423.000000000        6745420.00000000        6269184.00000000     
   3467278.00000000        8757209.00000000        4461193.00000000     
   4353687.00000000        6496485.00000000        2456598.00000000     
   3981814.00000000        3218944.00000000        5801973.00000000     
   7778862.00000000        4969302.00000000        4568688.00000000     
   560580.000000000        7201273.00000000        8364380.00000000     
   7512456.00000000        6056364.00000000        575517.000000000     
   1184172.00000000        8448802.00000000        5990769.00000000     
   8003360.00000000        3092778.00000000        904893.000000000     
   5758675.00000000     
