          71          54   1.00000000000000     
    1       2    0 1 0 0 1 0 0 1 0 1 0 1 1 0 0 0 0 0 0 0 1 1 0 0 1 1 1 1 1 1 1 1 0 1 1 1 1 0 1 1 1 0 0 0 0 0 1 1 1 1 0
    0       0    1 0 1 0 0 1 0 1 1 0 0 0 0 1 0 1 1 1 0 1 0 1 0 0 1 1 0 0 0 0 0 0 1 0 1 0 0 1 0 1 1 1 1 1 1 1 1 1 0 1 1
    1       1    0 1 0 0 1 0 1 0 1 1 1 1 1 1 0 1 1 1 0 1 1 0 0 1 1
    2       2    0 1 0 0 1 0 0 1 0 1 0 1 1 0 1 0 0 0 0 1 1 0 1 0 1 1 1 0 0 1 0 1 0 0 0 1 1 0 1 1 1 0 0 0 0 1 1 1 1 1 0
    0       0    1 0 1 0 0 1 0 1 1 1 0 0 0 1 0 0 1 1 0 1 1 1 0 0 1 1 0 0 0 0 0 0 1 0 1 0 0 1 0 1 1 1 1 1 1 1 1 1 0 0 1
    1       1    0 1 0 0 1 0 1 0 1 1 1 1 1 1 0 1 1 1 0 1 1 0 0 1 1
    3       2    0 1 0 0 1 0 0 1 0 1 0 0 1 0 0 0 0 0 1 0 1 1 0 0 1 0 0 1 1 1 1 1 0 1 0 1 1 0 1 1 1 0 0 0 0 1 1 1 1 1 0
    0       0    1 0 1 0 0 0 1 0 1 1 1 0 0 1 0 0 0 1 0 1 1 1 0 0 1 1 0 0 0 0 0 0 0 0 1 0 0 1 1 0 1 1 1 1 1 1 1 1 0 0 1
    1       1    0 1 0 0 1 0 1 0 1 1 1 1 1 1 1 1 1 1 0 1 1 0 0 1 1
    4       2    0 1 0 0 1 0 0 1 0 1 0 0 1 0 0 1 0 0 1 0 1 0 0 0 1 1 0 0 1 1 0 1 0 1 0 1 1 0 1 1 1 0 0 0 0 1 1 1 1 1 0
    0       0    1 0 1 0 0 1 0 0 1 1 0 0 0 1 0 0 0 1 0 1 1 1 1 0 1 1 0 0 0 0 0 0 0 0 1 0 0 1 1 0 1 1 1 1 1 1 1 1 0 0 1
    1       1    0 1 0 0 1 0 1 0 1 1 1 0 1 1 0 0 1 0 0 1 1 0 0 1 1
    5       2    0 1 0 0 1 0 0 1 0 1 0 1 1 0 0 1 0 1 1 0 1 0 1 0 0 1 0 0 1 1 0 1 0 0 0 0 1 0 1 1 1 0 0 0 0 1 1 1 1 1 0
    0       0    1 0 1 0 0 1 0 0 1 0 0 0 0 1 0 1 0 1 1 1 1 1 0 0 1 1 0 0 0 0 0 1 1 1 1 0 0 1 1 0 1 1 1 1 1 1 1 1 0 0 1
    1       1    0 1 0 0 1 0 1 0 1 1 1 0 1 1 0 0 1 1 0 1 1 0 0 1 1
    6       2    0 1 0 0 1 0 0 1 0 1 0 1 1 0 0 0 0 1 0 0 1 0 1 0 1 1 0 0 1 1 0 1 0 0 0 0 1 0 1 1 1 0 0 0 0 1 1 1 1 1 0
    0       0    1 0 1 0 0 1 0 0 1 1 1 0 0 1 0 1 0 1 0 1 1 1 1 1 1 1 0 0 0 0 0 0 1 1 1 0 0 1 1 0 1 1 1 1 1 1 1 1 0 0 1
    1       1    0 1 0 0 1 0 1 0 1 1 1 1 1 0 0 0 1 1 0 1 1 0 0 1 1
    7       2    0 1 0 0 1 0 0 1 0 1 0 0 1 0 0 0 0 0 1 0 1 1 0 0 1 0 0 0 1 1 1 1 0 1 0 1 1 0 1 1 1 0 0 0 0 1 1 1 1 1 0
    0       0    1 0 1 0 0 1 1 1 1 1 1 0 0 0 0 0 0 1 0 1 1 1 0 0 1 1 0 0 0 0 0 0 0 0 1 0 0 1 1 0 1 1 1 1 1 1 1 1 0 0 1
    1       1    0 1 0 0 1 0 1 0 1 1 0 1 1 1 0 1 1 1 0 1 1 0 0 1 1
    8       2    0 1 0 0 1 0 0 1 0 1 0 0 1 0 1 0 0 1 1 0 0 1 0 0 1 1 0 1 1 1 1 0 0 1 0 1 1 0 1 1 1 0 0 0 0 1 1 1 1 1 0
    0       0    1 0 1 0 0 0 1 1 1 0 1 0 0 1 0 0 0 1 0 1 1 1 0 0 1 1 0 0 0 0 0 0 0 0 1 0 0 1 1 0 1 1 1 1 1 1 1 1 0 0 1
    1       1    0 1 0 0 1 0 1 0 1 1 1 0 1 1 1 0 1 0 0 1 1 0 0 1 1
    9       2    0 1 0 0 1 0 0 1 0 1 0 0 1 0 0 0 1 1 1 0 0 1 0 0 1 1 0 0 1 1 1 0 0 0 1 1 1 0 1 1 1 0 0 0 0 1 1 1 1 1 0
    0       0    1 0 1 0 0 1 0 1 1 0 1 0 0 1 0 0 0 1 0 1 1 0 0 0 1 1 0 0 0 0 0 0 0 0 1 0 1 1 1 0 1 1 1 1 1 1 1 1 0 0 1
    1       1    0 1 0 0 1 0 1 0 1 1 1 0 1 1 1 1 1 0 0 1 1 0 0 1 1
   10       2    0 1 0 0 1 0 0 1 0 1 0 0 1 1 0 0 0 0 1 0 1 1 0 0 1 0 0 1 1 1 1 1 0 1 0 1 1 0 1 1 1 0 0 0 0 1 1 1 1 1 0
    0       0    1 0 1 0 0 0 1 0 1 1 1 0 0 1 0 0 0 1 0 1 1 1 0 0 1 1 0 0 0 0 0 0 0 0 1 0 0 1 1 0 1 1 1 1 1 1 1 1 0 0 1
    1       1    0 1 0 0 1 0 1 0 1 1 1 1 1 1 1 1 1 1 0 1 1 0 0 1 1
   11       2    0 1 0 0 1 0 0 1 0 1 0 1 1 0 0 0 0 0 0 1 1 1 1 0 1 1 1 0 1 1 0 1 0 0 0 1 1 0 1 1 1 0 0 0 0 1 1 1 1 1 0
    0       0    1 0 1 0 0 1 0 1 1 1 0 0 0 1 0 1 1 1 0 1 1 1 0 0 1 1 0 0 0 0 0 0 1 1 1 0 0 1 0 1 1 1 1 1 1 1 1 1 0 0 1
    1       1    0 1 0 0 1 0 1 0 1 1 0 1 1 1 0 1 1 1 0 1 1 0 0 1 1
   12       2    0 1 0 0 1 0 0 1 0 1 0 0 0 0 0 0 0 0 1 0 1 1 0 0 1 1 0 1 1 1 1 0 0 0 0 1 1 0 1 1 1 0 0 0 0 1 1 1 1 1 0
    0       0    1 0 1 0 0 1 1 0 1 1 1 0 0 1 0 0 0 1 0 1 1 1 0 0 1 1 0 0 0 0 0 0 0 0 1 0 1 1 1 0 1 1 1 1 1 1 1 1 0 0 1
    1       1    0 1 0 0 1 0 1 0 1 1 1 1 1 1 1 0 1 1 0 1 1 0 0 1 1
   13       2    0 1 0 0 1 0 0 1 0 1 0 0 1 1 0 0 0 1 1 0 0 0 0 0 1 1 0 0 1 1 1 0 0 0 0 1 1 0 1 1 1 0 0 0 0 1 1 1 1 1 0
    0       0    1 0 1 0 0 1 0 0 1 0 1 0 0 1 0 0 1 1 0 1 1 1 0 0 1 1 0 0 0 0 0 0 1 0 1 0 0 1 1 0 1 1 1 1 1 1 1 1 0 0 1
    1       1    0 1 0 0 1 0 1 0 1 1 1 1 1 1 1 1 1 1 0 1 1 0 0 1 1
   14       2    0 1 0 0 1 0 0 1 0 1 0 0 1 0 0 0 0 0 0 1 1 1 1 0 1 1 1 0 1 1 0 1 0 1 0 1 1 0 1 1 1 0 0 0 0 1 1 1 1 1 0
    0       0    1 0 1 0 0 1 0 1 1 1 0 0 0 1 0 1 1 1 0 1 1 1 0 0 1 1 0 0 0 0 0 0 1 0 1 0 1 1 0 1 1 1 1 1 1 1 1 1 0 0 1
    1       1    0 1 0 0 1 0 1 0 1 1 1 1 1 1 0 1 1 0 0 1 1 0 0 1 1
   15       2    0 1 0 0 1 0 0 1 0 1 0 1 1 0 0 0 1 0 0 1 1 1 1 0 1 1 1 0 1 1 0 0 0 0 1 1 1 0 1 1 1 0 0 0 0 1 1 1 1 1 0
    0       0    1 0 1 0 0 1 0 1 1 1 0 0 0 1 0 0 0 1 0 1 1 0 0 0 1 1 0 0 0 0 0 0 0 0 1 0 0 1 0 1 1 1 1 1 1 1 1 1 0 0 1
    1       1    0 1 0 0 1 0 1 0 1 1 1 1 1 1 1 1 1 0 0 1 1 0 0 1 1
   16       2    0 1 0 0 1 0 0 1 0 1 0 0 1 0 0 0 0 0 1 0 1 1 0 0 1 0 0 0 1 1 1 1 0 1 1 1 1 0 1 1 1 0 0 0 0 1 1 1 1 1 0
    0       0    1 0 1 0 0 0 1 1 1 0 1 0 1 1 0 0 0 1 0 1 1 1 0 0 1 1 0 0 0 0 0 0 0 0 1 0 0 1 1 0 1 1 1 1 1 1 1 1 0 0 1
    1       1    0 1 0 0 1 0 1 0 0 1 1 1 1 1 1 1 1 0 0 1 1 0 0 1 1
   17       2    0 1 0 0 1 0 0 1 0 1 0 1 1 0 0 0 0 0 0 1 1 1 1 0 1 1 1 0 1 1 0 1 0 0 0 1 1 0 1 1 1 0 0 0 0 1 1 1 1 1 0
    0       0    1 0 1 0 0 1 0 1 1 1 0 0 0 1 0 1 1 1 0 1 1 1 0 0 1 1 0 0 0 0 0 0 1 1 1 0 0 1 0 1 1 1 1 1 1 1 1 1 0 0 1
    1       1    0 1 0 0 1 0 1 0 1 1 0 1 1 1 0 1 1 1 0 1 1 0 0 1 1
   18       2    0 1 0 0 1 0 0 1 0 1 0 1 1 0 1 0 0 0 0 1 1 0 1 0 1 1 1 0 0 1 0 1 0 0 0 1 1 0 1 1 1 0 0 0 0 1 1 1 1 1 0
    0       0    1 0 1 0 0 1 0 1 1 1 0 0 0 1 0 0 1 1 0 1 1 0 0 0 1 1 0 0 0 0 0 0 1 0 1 0 0 1 0 1 1 1 1 1 1 1 1 1 0 0 1
    1       1    0 1 0 0 1 0 1 0 1 1 1 1 1 1 0 1 1 1 0 1 1 0 0 1 1
   19       2    0 1 0 0 1 0 0 1 0 1 0 1 1 0 0 0 0 1 1 0 1 1 1 0 1 1 1 0 1 1 0 1 0 0 0 0 1 0 1 1 1 0 0 0 0 1 1 1 1 1 0
    0       0    1 0 1 0 0 1 0 1 1 0 0 0 0 1 0 1 0 1 0 1 1 1 0 0 1 1 0 0 0 0 0 0 1 1 1 0 0 1 0 0 1 1 1 1 1 1 1 1 0 0 1
    1       1    0 1 0 0 1 0 1 0 1 1 0 1 1 1 0 1 1 1 0 1 1 0 0 1 1
   20       2    0 1 0 0 1 0 0 1 0 1 0 0 1 0 0 0 0 0 1 0 1 0 0 0 1 1 0 0 1 1 0 1 0 1 0 1 1 0 1 1 1 0 0 0 0 1 1 1 1 1 0
    0       0    1 0 1 0 0 1 1 0 1 1 1 0 0 1 0 0 0 1 0 1 1 1 0 0 1 1 0 0 0 0 0 0 0 0 1 0 0 1 1 0 1 1 1 1 1 1 1 1 0 0 1
    1       1    0 1 0 0 1 0 1 0 1 1 1 1 1 1 1 1 1 1 0 1 1 0 0 1 1
   21       2    0 1 0 0 1 0 0 1 0 1 0 0 1 0 0 0 1 1 1 0 0 1 0 0 1 1 0 1 1 1 0 0 0 1 0 1 1 0 1 1 1 0 0 0 0 1 1 1 1 1 0
    0       0    1 0 1 0 0 0 0 1 1 1 1 0 0 1 0 0 0 1 0 1 1 0 0 0 1 1 0 0 0 0 0 0 0 0 1 0 1 1 0 0 1 1 1 1 1 1 1 1 0 0 1
    1       1    0 1 0 0 1 0 1 0 1 0 1 1 1 1 1 1 1 0 0 1 1 0 0 1 1
   22       2    0 1 0 0 1 0 0 1 0 1 0 1 1 0 0 0 0 1 0 1 1 1 1 0 1 1 1 0 1 1 0 1 0 1 0 0 1 0 1 1 1 0 0 0 0 1 1 1 1 1 0
    0       0    1 0 1 0 0 1 0 1 1 1 1 0 0 1 0 1 1 1 1 1 1 1 0 1 1 1 0 0 0 0 0 0 1 0 1 0 0 1 1 1 1 1 1 1 1 1 1 1 0 0 1
    1       1    0 1 0 0 1 0 1 0 1 1 1 1 1 1 0 1 1 1 0 1 1 0 0 1 1
   23       2    0 1 0 0 1 0 0 1 0 1 0 1 1 0 0 1 0 0 1 0 1 1 1 0 1 0 0 0 1 1 1 1 0 0 0 0 1 0 1 1 1 0 0 0 0 1 1 1 1 1 0
    0       0    1 0 1 0 0 1 1 0 1 0 1 0 0 1 0 0 0 0 0 1 1 1 1 0 1 1 0 0 0 0 0 0 0 0 1 0 0 1 1 0 1 1 1 1 1 1 1 1 0 0 1
    1       1    0 1 0 0 1 0 1 0 1 1 1 1 1 1 0 1 1 1 0 1 1 0 0 1 1
   24       2    0 1 0 0 1 0 0 1 0 1 0 1 1 0 0 0 0 1 1 0 1 0 0 0 0 1 0 1 1 1 0 1 0 1 0 1 1 0 1 1 1 0 0 0 0 1 1 1 1 1 0
    0       0    1 0 1 0 0 0 0 0 1 1 0 0 0 1 0 1 0 1 1 1 1 1 0 0 1 1 0 0 0 0 0 1 1 1 1 0 0 1 1 0 1 1 1 1 1 1 1 1 0 0 1
    1       1    0 1 0 0 1 0 1 0 1 1 1 0 1 1 1 0 1 1 0 1 1 0 0 1 1
   25       2    0 1 0 0 1 0 0 1 0 1 0 1 1 0 0 0 1 0 0 1 1 1 1 0 1 1 1 0 1 1 0 0 0 0 1 1 1 0 1 1 1 0 0 0 0 1 1 1 1 1 0
    0       0    1 0 1 0 0 1 0 1 1 1 0 0 1 1 0 1 1 1 0 1 1 1 0 0 1 1 0 0 0 0 0 0 0 0 1 0 0 1 0 1 1 1 1 1 1 1 1 1 0 0 1
    1       1    0 1 0 0 1 0 1 0 1 1 1 1 1 1 1 1 1 0 0 1 1 0 0 1 1
   26       2    0 1 0 0 1 0 0 1 0 1 0 1 1 0 1 0 0 0 0 1 1 1 1 0 1 1 1 0 0 1 0 1 0 0 0 1 1 0 1 1 1 0 0 0 0 1 1 1 1 1 0
    0       0    1 0 1 0 0 1 1 1 1 1 0 0 0 1 0 0 1 1 0 1 1 1 0 0 1 1 0 0 0 0 0 0 1 1 1 0 0 1 0 1 1 1 1 1 1 1 1 1 0 0 1
    1       1    0 1 0 0 1 0 1 0 1 1 0 1 1 1 0 1 1 1 0 1 1 0 0 1 1
   27       2    0 1 0 0 1 0 0 1 0 1 0 1 1 0 0 1 0 1 1 0 1 0 1 0 0 1 0 0 1 1 0 1 0 0 0 0 1 0 1 1 1 0 0 0 0 1 1 1 1 1 0
    0       0    1 0 1 0 0 1 0 0 1 1 0 0 0 1 0 1 0 0 0 1 1 1 1 0 1 1 0 0 0 0 0 1 1 1 1 0 0 1 1 0 1 1 1 1 1 1 1 1 0 0 1
    1       1    0 1 0 0 1 0 1 0 1 1 1 1 1 0 0 0 1 1 0 1 1 0 0 1 1
   28       2    0 1 0 0 1 0 0 1 0 1 0 0 1 0 1 1 0 0 1 1 1 0 1 0 1 1 0 0 1 1 0 1 0 1 0 1 1 0 1 1 1 0 0 0 0 1 1 1 1 1 0
    0       0    1 0 1 0 0 1 0 1 1 1 0 0 0 1 0 0 1 1 1 1 1 1 0 1 1 1 0 0 0 0 0 0 0 0 1 0 0 1 1 0 1 1 1 1 1 1 1 1 0 0 1
    1       1    0 1 0 0 1 0 1 0 1 1 1 1 1 1 0 0 1 0 0 1 1 0 0 1 1
   29       2    0 1 0 0 1 0 0 1 0 1 0 0 1 0 0 0 1 1 1 0 0 1 0 0 1 1 0 1 1 1 1 0 0 1 0 1 1 0 1 1 1 0 0 0 0 1 1 1 1 1 0
    0       0    1 0 1 0 0 1 0 1 1 0 1 0 0 1 0 0 0 1 0 1 1 0 0 0 1 1 0 0 0 0 0 0 0 0 1 0 1 1 1 0 1 1 1 1 1 1 1 1 0 0 1
    1       1    0 1 0 0 1 0 1 0 1 1 1 1 1 1 1 1 1 0 0 1 1 0 0 1 1
   30       2    0 1 0 0 1 0 0 1 0 1 0 0 0 0 0 0 0 0 1 0 1 1 1 0 1 1 1 0 1 1 0 1 0 1 1 1 1 0 1 1 1 0 0 0 0 1 1 1 1 1 0
    0       0    1 0 1 0 0 1 0 0 1 1 0 0 0 0 0 0 0 1 0 1 1 0 1 0 1 1 0 0 0 0 0 0 0 0 1 0 0 1 0 0 1 1 1 1 1 1 1 1 0 0 1
    1       1    0 1 0 0 1 0 1 0 1 1 1 1 1 1 1 1 1 0 0 1 1 0 0 1 1
   31       2    0 1 0 0 1 0 0 1 0 1 0 1 1 0 0 0 1 0 0 1 1 0 0 0 1 1 0 0 1 1 0 0 0 0 1 1 1 0 1 1 1 0 0 0 0 1 1 1 1 1 0
    0       0    1 0 1 0 0 1 1 1 1 1 1 0 0 1 0 0 0 1 0 1 1 1 0 0 1 1 0 0 0 0 0 0 0 0 1 0 0 1 1 1 1 1 1 1 1 1 1 1 0 0 1
    1       1    0 1 0 0 1 0 1 0 1 1 1 1 1 1 1 1 1 1 0 1 1 0 0 1 1
   32       2    0 1 0 0 1 0 0 1 0 1 0 1 1 0 0 0 0 0 0 0 1 1 0 0 1 0 1 0 1 1 1 1 0 1 1 1 1 0 1 1 1 0 0 0 0 1 1 1 1 1 0
    0       0    1 0 1 0 0 1 1 1 1 0 0 0 1 1 0 1 0 1 0 1 1 1 0 0 1 1 0 0 0 0 0 0 1 0 1 0 0 1 0 1 1 1 1 1 1 1 1 1 0 0 1
    1       1    0 1 0 0 1 0 1 0 1 1 1 1 1 1 1 1 1 0 0 1 1 0 0 1 1
   33       2    0 1 0 0 1 0 0 1 0 1 0 0 1 0 1 0 1 0 1 0 0 0 0 0 1 1 1 0 1 1 0 0 0 0 0 1 1 0 1 1 1 0 0 0 0 1 1 1 1 1 0
    0       0    1 0 1 0 0 1 0 1 1 1 0 0 0 1 0 0 0 1 0 1 1 0 0 0 1 1 0 0 0 0 0 0 0 0 1 0 1 1 1 1 0 1 1 1 1 1 1 1 0 0 1
    1       1    0 1 0 0 1 0 1 0 1 0 1 1 1 1 0 1 1 0 0 1 1 0 0 1 1
   34       2    0 1 0 0 1 0 0 1 0 1 0 1 1 0 0 0 0 1 0 1 1 1 1 0 1 1 0 1 0 1 0 1 0 1 0 1 1 0 1 1 1 0 0 0 0 1 1 1 1 1 0
    0       0    1 0 1 0 0 0 0 1 1 1 1 0 0 1 0 0 1 1 0 1 1 1 0 0 1 1 0 0 0 0 0 0 1 0 1 0 0 1 0 0 1 1 1 1 1 1 1 1 0 0 1
    1       1    0 1 0 0 1 0 1 0 1 1 1 1 1 1 1 1 1 1 0 1 1 0 0 1 1
   35       2    0 1 0 0 1 0 0 1 0 1 0 0 1 0 0 0 0 0 1 0 1 0 1 0 1 1 1 0 0 1 0 1 0 0 0 0 1 0 1 1 1 0 0 0 0 1 1 1 1 1 0
    0       0    1 0 1 0 0 1 0 1 1 1 1 0 0 1 0 0 0 1 0 1 1 1 0 0 1 1 0 0 0 0 0 0 0 0 1 0 0 1 1 1 1 1 1 1 1 1 1 1 0 0 1
    1       1    0 1 0 0 1 0 1 0 1 1 1 1 1 1 0 1 0 1 0 1 1 0 0 1 1
   36       2    0 1 0 0 1 0 0 1 0 1 0 0 1 0 1 0 0 0 0 1 1 1 1 0 1 1 1 0 1 1 0 1 0 1 0 1 1 0 1 1 1 0 0 0 0 1 1 1 1 1 0
    0       0    1 0 1 0 0 1 1 1 1 1 0 0 0 1 0 0 1 1 0 1 1 1 0 0 1 1 0 0 0 0 0 0 1 1 1 0 0 1 0 1 1 1 1 1 1 1 1 1 0 0 1
    1       1    0 1 0 0 1 0 1 0 1 1 0 1 1 1 0 1 1 0 0 1 1 0 0 1 1
   37       2    0 1 0 0 1 0 0 1 0 1 0 1 1 0 0 0 0 0 1 0 1 1 0 0 1 1 1 0 1 1 1 0 0 0 1 1 1 0 1 1 1 0 0 0 0 1 1 1 1 1 0
    0       0    1 0 1 0 0 1 0 1 1 0 0 0 0 1 0 0 0 1 0 1 1 1 0 0 1 1 0 0 0 0 0 0 0 0 1 0 1 1 0 1 1 1 1 1 1 1 1 1 0 0 1
    1       1    0 1 0 0 1 0 1 0 1 1 1 1 1 1 1 1 1 0 0 1 1 0 0 1 1
   38       2    0 1 0 0 1 0 0 1 0 1 0 1 1 0 0 0 0 1 1 0 1 1 0 0 1 1 0 1 1 1 0 0 0 1 0 1 0 0 1 1 1 0 0 0 0 1 1 1 1 1 0
    0       0    1 0 1 0 0 0 0 0 1 1 0 0 0 1 0 0 0 1 0 1 1 1 0 0 1 1 0 0 0 0 0 1 0 1 1 0 0 1 1 0 1 1 1 1 1 1 1 1 0 0 1
    1       1    0 1 0 0 1 0 1 0 1 1 0 0 1 1 1 0 1 0 0 1 1 0 0 1 1
   39       2    0 1 0 0 1 0 0 1 0 1 0 0 1 0 1 0 0 0 1 1 1 1 1 0 1 1 0 1 1 1 0 1 0 1 0 1 1 0 1 1 1 0 0 0 0 1 1 1 1 1 0
    0       0    1 0 1 0 0 1 0 1 1 0 1 0 0 1 0 1 0 1 0 1 1 1 0 0 1 1 0 0 0 0 0 0 1 0 1 0 0 1 0 0 1 1 1 1 1 1 1 1 0 0 1
    1       1    0 1 0 0 1 0 1 0 1 1 1 0 1 1 1 1 1 0 0 1 1 0 0 1 1
   40       2    0 1 0 0 1 0 0 1 0 1 0 1 1 0 1 0 0 0 0 1 0 0 1 0 1 1 0 0 1 1 1 1 0 0 0 1 1 0 1 1 1 0 0 0 0 1 1 1 1 1 0
    0       0    1 0 1 0 0 1 1 0 1 1 0 0 0 1 0 0 1 0 0 1 1 0 0 0 1 1 0 0 0 0 0 0 0 0 1 0 0 1 0 1 1 1 1 1 1 1 1 1 0 0 1
    1       1    0 1 0 0 1 0 1 0 1 1 1 1 1 1 0 1 1 1 0 1 1 0 0 1 1
   41       2    0 1 0 0 1 0 0 1 0 1 0 0 1 0 0 0 1 1 1 0 0 1 0 0 1 1 0 0 1 1 1 0 0 0 1 1 1 0 1 1 1 0 0 0 0 1 1 1 1 1 0
    0       0    1 0 1 0 0 1 0 0 1 0 1 0 0 1 0 0 0 1 0 1 1 0 0 0 1 1 0 0 0 0 0 0 0 0 1 0 1 1 1 0 1 1 1 1 1 1 1 1 0 0 1
    1       1    0 1 0 0 1 0 1 0 1 1 1 0 1 1 1 1 1 0 0 1 1 0 0 1 1
   42       2    0 1 0 0 1 0 0 1 0 1 0 0 1 0 1 0 0 0 0 1 1 1 1 0 1 1 0 0 1 1 0 1 0 1 0 1 1 0 1 1 1 0 0 0 0 1 1 1 1 1 0
    0       0    1 0 1 0 0 1 0 1 1 1 0 0 0 1 0 0 1 1 1 1 1 1 0 0 1 1 0 0 0 0 0 0 1 0 1 0 0 1 0 1 1 1 1 1 1 1 1 1 0 0 1
    1       1    0 1 0 0 1 0 1 0 1 1 1 1 1 1 0 1 1 0 0 1 1 0 0 1 1
   43       2    0 1 0 0 1 0 0 1 0 1 0 1 1 1 0 0 0 1 0 0 0 0 0 0 1 1 1 0 1 1 0 0 0 0 0 1 1 0 1 1 1 0 0 0 0 1 1 1 1 1 0
    0       0    1 0 1 0 0 1 0 0 1 0 1 0 0 1 0 0 1 1 1 1 1 1 0 0 1 1 0 0 0 0 0 0 1 0 1 0 0 1 1 0 1 1 1 1 1 1 1 1 0 0 1
    1       1    0 1 0 0 1 0 1 0 1 1 1 1 1 1 1 1 1 1 0 1 1 0 0 1 1
   44       2    0 1 0 0 1 0 0 1 0 1 0 0 0 0 0 0 0 0 0 0 1 1 0 0 1 1 0 1 1 1 1 0 0 0 0 0 1 0 1 1 1 0 0 0 0 1 1 1 1 1 0
    0       0    1 0 1 0 0 1 0 0 1 1 1 0 0 1 0 1 0 1 0 1 1 1 0 1 1 1 0 0 0 0 0 0 0 1 1 0 0 1 1 0 1 1 1 1 1 1 1 1 0 0 1
    1       1    0 1 0 0 1 0 1 0 1 1 1 1 1 1 0 1 1 1 0 1 1 0 0 1 1
   45       2    0 1 0 0 1 0 0 1 0 1 0 1 1 0 0 0 0 1 1 0 1 0 1 0 1 1 0 0 1 1 0 1 0 0 0 1 1 0 1 1 1 0 0 0 0 1 1 1 1 1 0
    0       0    1 0 1 0 0 1 1 0 1 1 1 0 0 1 0 0 0 1 0 1 1 1 1 0 1 1 0 0 0 0 0 0 1 1 1 0 1 0 1 0 1 1 1 1 1 1 1 1 0 0 1
    1       1    0 1 0 0 1 0 1 0 1 1 1 1 1 0 1 0 1 1 0 1 1 0 0 1 1
   46       2    0 1 0 0 1 0 0 1 0 1 0 0 1 0 0 0 0 0 1 0 1 1 0 0 1 0 0 0 1 1 1 1 0 1 1 1 0 0 1 1 1 0 0 0 0 1 1 1 1 1 0
    0       0    1 0 1 0 0 1 1 1 1 0 1 0 1 1 0 0 0 1 0 1 1 1 0 0 1 1 0 0 0 0 0 0 0 0 1 0 0 1 1 0 1 1 1 1 1 1 1 1 0 0 1
    1       1    0 1 0 0 1 0 1 0 1 1 1 1 1 1 1 1 1 0 0 1 1 0 0 1 1
   47       2    0 1 0 0 1 0 0 1 0 1 0 1 1 0 0 0 0 1 1 0 1 1 1 0 1 1 0 0 1 1 0 1 0 0 0 0 1 0 1 1 1 0 0 0 0 1 1 1 1 1 0
    0       0    1 0 1 0 0 1 0 0 1 1 1 0 0 1 0 1 0 1 0 1 1 1 1 1 1 1 0 0 0 0 0 0 1 1 1 0 0 1 1 0 1 1 1 1 1 1 1 1 0 0 1
    1       1    0 1 0 0 1 0 1 0 1 1 1 1 1 0 0 0 1 1 0 1 1 0 0 1 1
   48       2    0 1 0 0 1 0 0 1 0 1 0 0 1 0 0 0 0 0 1 0 1 1 1 0 1 1 0 1 1 1 1 1 0 1 1 1 1 0 1 1 1 0 0 0 0 1 1 1 1 1 0
    0       0    1 0 1 0 0 1 1 1 1 1 1 0 0 1 0 0 0 1 0 1 1 0 0 0 1 1 0 0 0 0 0 0 0 0 1 0 0 1 1 1 1 1 1 1 1 1 1 1 0 0 1
    1       1    0 1 0 0 1 0 1 0 1 1 1 1 1 1 1 1 1 0 0 1 1 0 0 1 1
   49       2    0 1 0 0 1 0 0 1 0 1 0 1 1 0 0 0 0 1 1 1 1 0 0 0 1 1 0 0 1 1 0 1 0 1 0 0 1 0 1 1 1 0 0 0 0 1 1 1 1 1 0
    0       0    1 0 1 0 0 0 0 0 1 1 0 0 0 1 1 1 0 1 1 1 1 1 0 0 1 1 0 0 0 0 0 0 1 1 1 0 0 1 1 0 1 1 1 1 1 1 1 1 0 0 1
    1       1    0 1 0 0 1 0 1 0 1 1 1 0 1 0 1 1 1 1 0 1 1 0 0 1 1
   50       2    0 1 0 0 1 0 0 1 0 1 0 1 1 0 0 0 0 0 1 0 1 1 1 0 1 0 1 1 1 1 1 1 0 0 1 1 1 0 1 1 1 0 0 0 0 0 1 1 1 1 0
    1       0    0 0 1 0 0 1 0 1 1 0 1 0 0 0 0 1 1 1 0 1 0 1 0 0 1 1 0 0 0 0 0 0 1 1 1 0 0 1 1 1 1 1 1 1 1 1 0 1 0 1 1
    1       1    0 1 0 0 0 0 1 0 1 1 1 1 1 1 0 1 0 1 0 1 1 0 0 1 1
   51       2    0 1 0 0 1 0 0 1 0 1 0 1 0 0 0 0 0 0 1 0 1 1 1 0 1 0 1 0 1 1 1 1 0 0 1 1 1 0 1 1 1 0 0 0 0 0 1 1 1 1 0
    1       0    0 0 1 0 0 1 0 1 1 0 1 0 0 0 0 1 1 1 0 1 1 0 0 0 1 1 0 0 0 0 0 0 1 0 1 0 1 1 1 1 1 1 1 1 1 1 0 1 0 1 1
    1       1    0 1 0 0 0 0 1 0 0 1 1 1 1 1 0 1 0 1 0 1 1 0 0 1 1
   52       2    0 1 0 0 1 0 0 1 0 1 0 1 1 0 0 0 0 0 1 0 1 1 1 0 1 0 1 1 1 1 1 1 0 0 1 1 1 0 1 1 1 0 0 0 0 0 1 1 1 1 0
    1       0    0 0 1 0 0 1 0 1 1 0 1 0 0 0 0 0 1 1 0 1 0 0 0 0 1 1 0 0 0 0 0 0 1 1 1 1 1 0 1 1 1 1 1 1 1 1 0 1 0 1 1
    1       1    0 1 0 0 0 0 1 0 1 1 1 1 1 1 0 1 0 1 0 1 1 0 0 1 1
   53       2    0 1 0 0 1 0 0 1 0 1 0 1 1 0 1 0 0 0 1 0 1 1 0 0 1 1 1 1 1 1 0 1 0 0 1 1 1 0 1 1 1 0 0 0 0 0 1 1 1 1 0
    1       0    0 0 1 0 0 1 0 1 1 0 1 0 0 1 0 1 1 1 0 1 0 0 0 0 1 1 0 0 0 0 0 0 1 1 1 1 0 1 1 1 1 1 1 1 1 1 0 1 0 1 1
    1       1    0 1 0 0 0 0 1 0 0 1 1 1 1 1 0 1 0 1 0 1 1 0 0 1 1
   54       2    0 1 0 0 1 0 0 1 0 1 0 1 0 1 0 0 0 0 1 1 1 1 0 0 1 0 1 1 1 1 1 1 1 0 1 1 1 0 1 1 1 0 0 0 0 0 1 1 1 1 0
    1       0    0 0 1 0 0 1 1 1 1 0 1 0 0 0 0 0 1 1 0 1 0 1 0 0 1 1 0 0 0 0 0 0 1 1 1 0 0 1 1 1 1 1 1 1 1 1 0 1 0 1 1
    1       1    0 1 0 0 0 0 1 0 1 1 1 1 1 1 0 1 0 0 0 1 1 0 0 1 1
   8800000.00000000        1618033.00000000       0.000000000000000E+000
  1.136363636363636E-007   2320132.00000000        6524285.00000000     
           1          42          18
   4966115.00000000        4053381.00000000        6681849.00000000     
   3841596.00000000        7482037.00000000        2510332.00000000     
   8408103.00000000        4221826.00000000        7562833.00000000     
   1039882.00000000        4014758.00000000        61047.0000000000     
   7368916.00000000        163019.000000000        6302873.00000000     
   3175947.00000000        3989924.00000000        2181758.00000000     
   7092331.00000000        8523808.00000000        2502530.00000000     
   7491280.00000000        8141651.00000000        1908191.00000000     
   5644578.00000000        1663364.00000000        6431310.00000000     
   6946077.00000000        7351522.00000000        6276574.00000000     
   8552501.00000000        8549917.00000000        3432966.00000000     
   1701634.00000000        3301068.00000000        6050139.00000000     
   530548.000000000        1436731.00000000        3072357.00000000     
   3973179.00000000        5654495.00000000        2320132.00000000     
   3472832.00000000        6364403.00000000        8321493.00000000     
   5778396.00000000        3054530.00000000        3429421.00000000     
   2742557.00000000        64043.0000000000        4994853.00000000     
   3911410.00000000        287679.000000000        3405759.00000000     
   8266022.00000000     
   8800000.00000000        1618033.00000000       0.000000000000000E+000
  1.136363636363636E-007   7709562.00000000        1667309.00000000     
           1          36          12
   832558.000000000        8622362.00000000        1470013.00000000     
   6157134.00000000        4979896.00000000        7608589.00000000     
   4144743.00000000        4216116.00000000        1365264.00000000     
   8169714.00000000        2560887.00000000        1354869.00000000     
   6424027.00000000        7828351.00000000        5872129.00000000     
   3764893.00000000        3546421.00000000        4463952.00000000     
   5079180.00000000        8731717.00000000        6979062.00000000     
   3916521.00000000        781002.000000000        7520161.00000000     
   3892927.00000000        6542717.00000000        3770620.00000000     
   6131187.00000000        7134816.00000000        8438679.00000000     
   3358511.00000000        5015469.00000000        2621518.00000000     
   6919267.00000000        3932834.00000000        7709562.00000000     
   42796.0000000000        8197807.00000000        2526284.00000000     
   6989925.00000000        799709.000000000        7348881.00000000     
   2600416.00000000        7015938.00000000        5763566.00000000     
   853716.000000000        2132828.00000000        4800828.00000000     
   785696.000000000        8601435.00000000        4715979.00000000     
   4372108.00000000        6094587.00000000        3761181.00000000     
   3639467.00000000     
   8800000.00000000        1618033.00000000       0.000000000000000E+000
  1.136363636363636E-007   6255303.00000000        2512077.00000000     
           1          55          31
   6189962.00000000        540243.000000000        4928102.00000000     
   7582663.00000000        6380953.00000000        4482023.00000000     
   2785518.00000000        7159178.00000000        5428723.00000000     
   2207405.00000000        1728406.00000000        2398965.00000000     
   1619581.00000000        2018571.00000000        1344239.00000000     
   3567906.00000000        7878789.00000000        4416830.00000000     
   7860279.00000000        4192815.00000000        6420228.00000000     
   3700674.00000000        4447050.00000000        6350017.00000000     
   1784808.00000000        7102192.00000000        5968151.00000000     
   4871261.00000000        5166702.00000000        2456877.00000000     
   6700043.00000000        4663321.00000000        4860851.00000000     
   7281478.00000000        5498762.00000000        4604251.00000000     
   1421488.00000000        2453265.00000000        6254466.00000000     
   1917061.00000000        3865118.00000000        1445456.00000000     
   2559461.00000000        8458086.00000000        8507656.00000000     
   2694000.00000000        6343174.00000000        8577268.00000000     
   3497787.00000000        8703406.00000000        4487106.00000000     
   2392346.00000000        8767063.00000000        5028100.00000000     
   6255303.00000000     
