          55          54   1.00000000000000     
    1       2    0 1 0 1 0 1 0 1 0 0 1 0 1 1 1 0 0 1 0 1 1 1 0 0 0 1 1 1 0 0 1 0 1 0 0 1 1 1 1 1 0 1 0 1 0 0 0 1 0 0 0
    1       1    1 0 1 0 1 0 1 1 1 1 1 0 0 0 0 0 0 0 0 0 0 0 0 0 1 1 0 0 0 0 0 1 1 1 0 1 1 0 1 0 1 1 1 0 1 0 1 0 0 0 0
    1       1    0 1 1 0 0 1 0 1 0 0 1 0 1 1 0 1 1 0 0 1 1 0 0 1 1
    2       2    0 1 0 1 0 1 0 1 0 0 1 0 1 1 1 0 0 1 0 0 1 1 1 0 0 1 1 1 0 0 1 1 1 0 0 1 1 1 1 1 0 1 0 1 0 0 0 1 0 0 0
    1       1    1 0 1 0 1 1 0 1 1 1 1 0 0 0 0 0 0 0 0 1 0 0 1 0 1 1 0 0 0 0 0 1 1 0 1 1 0 0 1 0 0 1 1 0 1 0 1 0 0 0 0
    1       1    0 1 1 0 0 1 0 1 1 0 0 0 1 0 0 1 1 0 0 1 1 0 0 1 1
    3       2    0 1 0 1 0 1 0 1 0 0 1 0 1 1 1 0 0 1 0 1 1 1 1 0 0 1 1 1 0 0 1 1 1 0 0 1 1 1 1 1 0 1 0 1 0 0 0 1 0 0 0
    1       1    1 0 1 0 1 1 0 1 1 1 1 0 0 0 0 0 0 0 0 0 0 0 0 0 1 1 0 0 0 0 0 1 1 1 1 1 0 0 1 0 0 1 1 0 1 0 1 0 0 0 0
    1       1    0 1 1 0 0 1 0 1 1 0 1 0 1 1 0 1 1 0 0 1 1 0 0 1 1
    4       2    0 1 0 1 0 1 0 1 0 0 1 0 1 1 1 0 0 1 0 1 1 1 0 0 0 1 1 1 0 0 1 0 1 0 0 1 1 1 1 1 0 1 0 1 0 0 0 1 0 0 0
    1       1    1 0 1 0 1 0 1 1 1 1 1 0 0 0 0 0 0 0 0 0 0 0 0 0 1 1 0 0 0 0 0 1 1 1 0 1 1 0 1 0 1 1 1 0 1 0 1 0 0 0 0
    1       1    0 1 1 0 0 1 0 1 0 0 1 0 1 1 0 1 1 0 0 1 1 0 0 1 1
    5       2    0 1 0 1 0 1 0 1 0 0 1 0 1 1 1 0 0 1 0 1 1 1 0 0 0 1 1 1 0 0 1 0 1 0 0 1 1 1 1 1 0 1 0 1 0 0 0 1 0 0 0
    1       1    1 0 1 0 1 0 1 1 1 1 1 0 0 0 0 0 1 0 0 0 0 0 0 0 1 1 0 0 0 0 0 1 1 1 0 1 1 0 1 0 1 1 1 0 1 0 1 0 0 0 0
    1       1    0 1 1 0 0 1 0 1 0 0 1 0 1 0 0 1 1 0 0 1 1 0 0 1 1
    6       2    0 1 0 1 0 1 0 1 0 0 1 0 1 1 1 0 0 1 0 1 1 1 0 0 0 1 1 1 0 0 1 1 1 0 0 0 1 1 1 1 0 1 0 1 0 0 0 1 0 0 0
    1       1    1 0 1 0 1 0 0 1 0 1 1 0 0 0 0 1 1 0 0 0 0 0 0 1 1 1 0 0 0 0 0 1 1 0 0 1 1 1 1 1 0 1 1 0 1 0 1 0 0 0 0
    1       1    0 1 1 0 0 1 0 1 0 0 1 0 1 0 1 1 1 0 0 1 1 0 0 1 1
    7       2    0 1 0 1 0 1 0 1 0 0 1 0 1 1 1 0 0 1 0 1 1 1 0 0 0 1 1 1 0 0 1 0 1 0 0 1 1 1 1 1 0 1 0 1 0 0 0 1 0 0 0
    1       1    1 0 1 0 1 0 1 1 1 1 1 0 0 0 0 0 1 0 0 0 0 0 0 0 1 1 0 0 0 0 0 1 1 1 0 1 1 0 1 0 1 1 1 0 1 0 1 0 0 0 0
    1       1    0 1 1 0 0 1 0 1 0 0 1 0 1 1 0 1 1 0 0 1 1 0 0 1 1
    8       2    0 1 0 1 0 1 0 1 0 0 1 0 1 1 1 0 0 1 0 1 1 1 0 0 0 1 1 1 0 0 1 0 1 0 0 1 1 1 1 1 0 1 0 1 0 0 0 1 0 0 0
    1       1    1 0 1 0 1 0 1 1 1 1 1 0 0 0 0 0 0 0 0 0 0 0 0 0 1 1 0 0 0 0 0 1 1 1 0 1 1 0 1 0 1 1 1 0 1 0 1 0 0 0 0
    1       1    0 1 1 0 0 1 0 1 0 0 1 0 1 1 0 1 1 0 0 1 1 0 0 1 1
    9       2    0 1 0 1 0 1 0 1 0 0 1 0 1 1 1 0 0 1 0 1 1 1 0 0 0 1 1 1 0 0 0 1 1 0 0 1 1 1 1 1 0 1 0 1 0 0 0 1 0 0 0
    1       1    1 0 1 0 1 0 0 1 0 0 1 1 0 0 0 1 0 0 0 0 0 0 0 1 1 1 0 0 0 0 0 1 1 0 0 1 1 0 1 0 0 1 1 0 1 0 1 0 0 0 0
    1       1    0 1 1 0 0 1 0 1 0 0 0 0 1 0 1 1 1 0 0 1 1 0 0 1 1
   10       2    0 1 0 1 0 1 0 1 0 0 1 0 1 0 1 0 0 1 0 1 1 1 1 0 0 1 1 1 0 0 1 0 1 0 0 1 1 1 1 1 0 1 0 1 0 0 0 1 0 0 0
    1       1    1 0 1 0 1 1 0 1 1 1 1 0 0 0 0 0 0 0 0 0 0 0 0 0 1 1 0 0 0 0 0 1 1 1 0 1 1 0 1 0 0 1 1 0 1 0 1 0 0 0 0
    1       1    0 1 1 0 0 1 0 1 1 0 1 0 1 1 0 1 1 0 0 1 1 0 0 1 1
   11       2    0 1 0 1 0 1 0 1 0 0 1 0 1 1 1 0 0 1 0 0 1 1 1 0 0 1 1 1 0 0 1 1 1 0 0 1 1 1 1 1 0 1 0 1 0 0 0 1 0 0 0
    1       1    1 0 1 0 1 1 0 1 1 1 1 0 0 0 0 0 0 0 0 1 1 0 1 0 1 1 0 0 0 0 0 1 1 0 1 1 0 0 1 0 0 1 1 0 1 0 1 0 0 0 0
    1       1    0 1 1 0 0 1 0 1 1 0 0 0 1 0 0 1 1 0 0 1 1 0 0 1 1
   12       2    0 1 0 1 0 1 0 1 0 0 1 0 1 1 1 0 0 1 0 1 1 1 0 0 0 1 1 1 0 0 1 0 1 0 0 1 1 1 1 1 0 1 0 1 0 0 0 1 0 0 0
    1       1    1 0 1 0 1 0 1 1 1 1 1 0 0 0 0 0 0 0 0 0 0 0 0 0 1 1 0 0 0 0 0 1 1 1 0 1 1 0 1 0 1 1 1 0 1 0 1 0 0 0 0
    1       1    0 1 1 0 0 1 0 1 0 0 1 0 1 1 0 1 1 0 0 1 1 0 0 1 1
   13       2    0 1 0 1 0 1 0 1 0 0 1 0 1 1 1 0 0 1 0 1 1 1 0 0 0 1 1 1 0 0 1 0 1 0 0 1 1 1 1 1 0 1 0 1 0 0 0 1 0 0 0
    1       1    1 0 1 0 1 0 0 1 1 1 1 0 0 0 0 0 0 0 0 0 0 0 0 0 1 1 0 0 0 0 0 1 1 1 0 1 1 0 1 0 1 1 1 0 1 0 1 0 0 0 0
    1       1    0 1 1 0 0 1 0 1 0 0 1 0 1 1 0 1 1 0 0 1 1 0 0 1 1
   14       2    0 1 0 1 0 1 0 1 0 0 1 0 1 1 1 0 0 1 0 1 1 1 0 0 0 1 1 1 0 0 1 1 1 0 0 1 1 1 1 1 0 1 0 1 0 0 0 1 0 0 0
    1       1    1 0 1 0 1 1 0 1 1 0 1 0 0 0 0 1 0 0 0 0 0 0 0 0 1 1 0 0 0 0 0 1 1 0 0 1 1 0 1 0 0 1 1 0 1 0 1 0 0 0 0
    1       1    0 1 1 0 0 1 0 1 1 0 0 0 1 0 0 1 1 0 0 1 1 0 0 1 1
   15       2    0 1 0 1 0 1 0 1 0 0 1 0 1 1 0 0 0 1 0 1 1 1 1 0 0 1 1 1 0 0 1 1 1 0 0 1 1 1 1 1 0 1 0 1 0 0 0 1 0 0 0
    1       1    1 0 1 0 1 1 0 1 1 1 1 1 0 0 0 1 0 0 0 1 1 0 1 0 1 1 0 0 0 0 0 1 1 0 1 1 1 0 1 0 0 1 1 0 1 0 1 0 0 0 0
    1       1    0 1 1 0 0 1 0 1 1 0 0 0 1 0 0 1 1 0 0 1 1 0 0 1 1
   16       2    0 1 0 1 0 1 0 1 0 0 1 0 1 1 1 0 0 1 0 1 1 0 0 0 0 1 1 1 0 0 1 1 1 0 0 1 1 1 1 1 0 1 0 1 0 0 0 1 0 0 0
    1       1    1 0 1 0 1 1 0 1 0 0 1 1 0 0 0 1 0 0 0 0 0 0 0 1 1 1 0 0 0 0 0 1 1 0 0 1 1 0 1 0 0 1 1 0 1 0 1 0 0 0 0
    1       1    0 1 1 0 0 1 0 1 0 0 0 0 1 0 1 1 1 0 0 1 1 0 0 1 1
   17       2    0 1 0 1 0 1 0 1 0 0 1 0 0 1 1 0 1 1 0 1 1 1 0 0 0 1 1 1 0 0 1 0 1 0 0 1 1 1 1 1 0 1 0 1 0 0 0 1 0 0 0
    1       1    1 0 1 0 1 0 1 1 1 1 1 0 0 0 0 0 1 0 0 0 0 0 0 0 1 1 0 0 0 0 0 1 1 1 0 1 1 0 1 0 1 1 1 0 1 0 1 0 0 0 0
    1       1    0 1 1 0 0 1 0 1 0 0 1 0 1 1 0 1 1 0 0 1 1 0 0 1 1
   18       2    0 1 0 1 0 1 0 1 0 0 1 0 1 1 1 0 0 1 0 1 1 1 1 0 0 1 1 1 0 0 1 1 1 0 0 1 1 1 1 1 0 1 0 1 0 0 0 1 0 0 0
    1       1    1 0 1 0 1 1 0 1 1 0 1 0 0 0 0 1 0 0 0 0 0 0 0 0 1 1 0 0 0 0 0 1 1 0 0 1 1 0 1 0 0 1 1 0 1 0 1 0 0 0 0
    1       1    0 1 1 0 0 1 0 1 1 0 0 0 1 0 0 1 1 0 0 1 1 0 0 1 1
   19       2    0 1 0 1 0 1 0 1 0 0 1 0 1 1 1 0 0 1 0 1 1 1 0 0 0 1 1 1 0 0 1 0 1 0 0 1 1 1 1 1 0 1 0 1 0 0 0 1 0 0 0
    1       1    1 0 1 0 1 1 0 1 1 1 1 0 0 0 0 0 0 0 0 0 0 0 0 0 1 1 0 0 0 0 0 1 1 1 1 1 0 0 1 0 0 1 1 0 1 0 1 0 0 0 0
    1       1    0 1 1 0 0 1 0 1 1 0 1 0 1 1 0 1 1 0 0 1 1 0 0 1 1
   20       2    0 1 0 1 0 1 0 1 0 0 1 0 1 1 1 0 0 1 0 1 1 1 0 0 0 1 1 1 0 0 1 0 1 0 0 1 1 1 1 1 0 1 0 1 0 0 0 1 0 0 0
    1       1    1 0 1 0 1 0 1 1 1 1 1 0 0 0 0 0 0 0 0 0 0 0 0 0 1 1 0 0 0 0 0 1 1 1 0 1 1 0 1 0 1 1 1 0 1 0 1 0 0 0 0
    1       1    0 1 1 0 0 1 0 1 0 0 1 0 1 1 0 1 1 0 0 1 1 0 0 1 1
   21       2    0 1 0 1 0 1 0 1 0 0 1 0 1 1 1 0 0 1 0 1 0 1 0 0 0 1 1 1 0 0 1 0 1 0 0 0 1 1 1 1 0 1 1 1 0 0 0 1 0 0 0
    1       0    1 0 1 0 1 0 0 1 1 1 1 0 0 0 0 0 1 0 0 0 0 1 0 0 1 1 0 0 0 0 0 1 1 1 0 0 1 0 1 0 1 1 1 0 1 0 1 0 0 0 0
    1       1    0 1 1 0 0 1 0 1 0 0 1 0 0 0 0 1 1 0 0 1 1 0 0 1 1
   22       2    0 1 0 1 0 1 0 1 0 0 1 0 1 1 1 0 0 1 0 0 1 0 0 0 1 1 1 1 0 0 1 0 1 0 1 1 1 1 1 1 0 1 0 1 0 0 0 1 0 0 0
    1       1    1 0 1 0 1 0 0 1 1 0 1 0 0 0 0 0 0 0 0 0 0 0 0 0 1 1 0 1 0 0 0 1 0 1 1 1 1 0 1 0 1 1 1 0 1 0 1 0 0 1 0
    1       1    0 1 1 0 0 1 0 0 0 0 0 0 0 0 0 1 1 1 0 1 1 0 0 1 1
   23       2    0 1 0 1 0 1 0 1 0 0 1 0 1 1 0 1 0 1 0 0 1 1 1 1 0 1 1 1 0 0 1 0 1 0 0 1 1 1 1 1 0 1 0 1 0 0 0 1 0 0 0
    1       1    1 0 1 0 1 1 1 1 1 1 1 0 0 0 0 0 0 0 0 0 0 0 0 0 1 1 0 0 0 0 0 1 1 1 0 1 1 0 1 0 1 1 1 0 1 0 1 0 0 1 0
    1       1    0 1 1 0 0 1 0 0 0 0 0 0 1 1 0 1 1 0 0 1 1 0 0 1 1
   24       2    0 1 0 1 0 1 0 1 0 0 1 0 1 1 1 0 1 1 0 0 1 1 1 0 0 1 1 1 0 0 0 1 1 0 0 0 1 1 1 1 1 1 1 1 0 1 0 1 0 0 0
    1       0    1 0 0 0 1 0 0 1 1 1 1 0 0 0 0 1 1 1 0 1 0 1 0 0 1 1 0 0 0 0 0 1 1 0 0 1 0 0 1 0 0 1 1 0 1 0 1 0 0 1 1
    1       1    0 0 1 0 0 1 0 0 1 0 0 0 1 0 1 1 1 0 0 1 1 0 0 1 1
   25       2    0 1 0 1 0 1 0 1 0 0 1 0 1 0 1 0 1 0 0 0 1 1 1 1 0 1 1 1 1 0 1 1 1 0 0 0 0 1 1 1 1 1 1 1 0 0 0 1 0 0 0
    1       0    1 0 1 0 1 0 0 1 1 1 1 0 0 1 0 1 1 0 0 1 0 1 1 1 1 1 0 0 0 0 0 0 1 0 0 0 1 0 1 0 0 1 1 0 1 0 1 0 0 1 1
    1       1    0 0 1 0 0 1 0 0 1 0 0 1 1 1 1 1 1 0 0 1 1 0 0 1 1
   26       2    0 1 0 1 0 1 0 1 0 0 1 0 1 0 1 0 1 1 1 1 1 1 0 0 0 0 1 1 0 0 1 1 1 0 0 0 1 1 1 1 1 1 1 1 0 0 0 1 0 0 0
    1       0    1 0 1 0 1 0 0 1 1 1 1 0 0 0 0 1 1 1 0 1 0 1 0 1 1 1 0 0 0 0 0 1 1 0 0 0 1 0 1 0 0 1 1 0 1 0 1 0 0 1 1
    1       1    0 0 1 0 0 1 0 0 0 0 0 0 0 0 1 1 1 0 0 1 1 0 0 1 1
   27       2    0 1 0 1 0 1 0 1 0 0 1 0 1 0 0 0 1 1 0 0 1 1 0 0 0 0 1 1 0 0 1 1 1 0 0 1 1 1 1 1 1 1 1 1 0 0 0 1 0 0 0
    1       0    1 0 1 0 1 0 0 1 1 1 1 0 0 0 0 0 1 1 0 1 0 1 0 0 1 1 0 0 0 0 0 1 1 0 1 0 1 0 1 0 0 1 1 0 1 0 1 0 0 1 1
    1       1    0 0 1 0 0 1 0 0 1 0 0 0 0 0 1 0 1 0 0 1 1 0 0 1 1
   28       2    0 1 0 1 0 1 0 1 0 0 1 0 1 0 0 0 1 1 0 0 1 1 0 0 0 0 1 1 0 0 1 1 1 0 0 0 1 1 1 1 1 1 1 1 0 0 0 1 0 0 0
    1       0    1 0 1 0 1 1 0 1 1 1 1 0 0 0 0 0 1 1 0 1 1 1 0 0 1 1 0 0 0 0 0 1 1 0 1 0 1 0 1 0 0 1 1 0 1 0 1 0 0 1 1
    1       1    0 0 1 0 0 1 0 0 1 0 0 0 0 0 0 1 1 0 0 1 1 0 0 1 1
   29       2    0 1 0 1 0 1 0 1 0 0 1 0 1 1 1 0 1 1 0 0 1 1 0 0 0 1 1 1 0 0 0 1 1 0 0 1 1 1 1 1 1 1 1 1 0 0 0 1 0 0 0
    1       0    1 0 1 0 0 0 0 1 1 1 1 0 0 0 0 0 1 0 0 1 0 1 0 0 1 1 0 0 0 0 0 1 1 0 0 1 1 0 1 0 0 1 1 0 1 0 1 0 0 1 1
    1       1    0 0 1 0 0 1 0 0 0 0 0 0 0 0 1 1 1 0 0 1 1 0 0 1 1
   30       2    0 1 0 1 0 1 0 1 0 0 1 0 1 1 1 0 1 1 0 0 1 1 0 0 0 0 1 1 0 0 1 1 1 1 0 1 1 1 1 1 1 1 1 1 0 0 0 1 0 0 0
    1       0    1 0 1 0 1 0 0 1 1 1 1 0 0 0 0 0 1 0 0 1 0 1 0 0 1 1 0 0 0 0 0 1 1 0 0 0 1 0 1 0 0 1 1 0 1 0 1 0 0 1 1
    1       1    0 0 1 0 0 1 0 0 0 0 0 0 0 0 1 1 1 0 0 1 1 0 0 1 1
   31       2    0 1 0 1 0 1 0 1 0 0 1 0 1 1 1 0 1 1 0 1 1 1 0 0 0 1 1 1 0 0 0 1 1 0 0 0 1 1 1 1 1 1 1 1 0 0 0 1 0 0 0
    1       0    1 0 1 0 0 0 0 1 1 1 1 0 0 0 0 1 1 1 1 1 1 1 0 0 1 1 0 0 0 0 0 1 1 0 0 0 0 0 1 0 1 1 1 0 1 0 1 0 0 1 1
    1       1    0 0 1 0 0 1 0 0 1 0 0 0 1 0 1 1 1 0 0 1 1 0 0 1 1
   32       2    0 1 0 1 0 1 0 1 0 0 1 0 1 1 0 0 1 1 0 0 1 1 0 0 0 0 1 1 0 0 1 1 1 0 0 1 1 1 1 1 1 1 1 1 0 0 0 1 0 0 0
    1       0    1 0 1 0 1 0 0 1 1 1 1 0 0 0 0 0 1 1 0 1 0 1 0 0 1 1 0 0 0 0 0 0 1 0 0 0 1 0 1 0 0 1 1 0 1 0 1 0 0 1 1
    1       1    0 0 1 0 0 1 0 0 0 0 0 0 0 0 1 1 1 0 0 1 1 0 0 1 1
   33       2    0 1 0 1 0 1 0 1 0 0 1 0 1 1 0 0 1 1 0 0 1 1 0 0 0 0 1 1 0 0 0 1 1 0 0 0 1 1 1 1 1 1 1 1 0 0 0 1 0 0 0
    1       0    1 0 1 0 1 1 0 1 1 1 1 0 0 0 0 0 1 1 1 1 1 1 0 0 1 1 0 0 0 0 0 1 1 0 0 0 1 0 1 0 1 1 1 0 1 0 1 0 0 1 1
    1       1    0 0 1 0 0 1 0 0 1 0 0 0 1 0 0 1 1 0 0 1 1 0 0 1 1
   34       2    0 1 0 1 0 1 0 1 0 0 1 0 1 1 1 0 1 1 1 0 1 1 0 0 0 0 1 1 0 1 1 1 1 1 0 1 1 1 1 1 1 1 1 1 0 0 0 1 0 0 0
    1       0    1 0 1 0 1 0 0 1 1 1 1 0 0 0 0 0 1 0 0 1 0 1 0 0 1 1 0 0 0 0 0 1 1 0 0 0 1 0 1 0 0 1 1 0 1 0 1 0 0 1 1
    1       1    0 0 1 0 0 1 0 0 0 0 0 0 0 0 1 1 1 0 0 1 1 0 0 1 1
   35       2    0 1 0 1 0 1 0 1 0 0 1 0 1 1 0 0 1 1 0 1 1 1 0 0 0 0 1 1 0 1 0 1 1 0 0 0 1 1 1 1 1 1 1 1 0 0 0 1 0 0 0
    1       0    1 0 1 0 1 1 0 1 1 1 1 0 0 0 0 0 1 1 0 1 1 1 0 0 1 1 0 0 0 0 0 1 1 0 0 0 1 0 1 1 1 1 1 0 1 0 1 0 0 1 1
    1       1    0 0 1 0 0 1 0 0 1 0 0 0 1 0 0 1 1 0 0 1 1 0 0 1 1
   36       2    0 1 0 1 0 1 0 1 0 0 1 0 1 1 0 0 1 1 0 0 1 1 0 0 0 0 1 1 0 0 1 1 1 0 0 1 1 1 1 1 1 1 1 1 0 0 0 1 0 0 0
    1       0    1 0 1 0 1 0 0 1 1 1 1 0 0 0 0 0 1 1 0 0 0 0 0 0 1 1 0 0 0 0 0 0 1 0 1 0 1 0 1 0 0 1 1 0 1 0 1 0 0 1 1
    1       1    0 0 1 0 0 1 0 0 0 0 0 0 0 0 1 1 1 0 0 1 1 0 0 1 1
   37       2    0 1 0 1 0 1 0 1 0 0 1 0 0 1 1 0 1 1 1 0 1 1 0 0 0 0 1 1 0 0 1 1 1 1 0 1 1 1 1 1 1 1 1 1 0 0 0 1 0 0 0
    1       0    1 0 1 0 1 0 0 1 1 1 1 0 0 0 0 0 1 0 0 1 1 1 0 0 1 1 0 0 0 0 0 1 1 0 0 0 1 0 1 0 0 1 1 0 1 0 1 0 0 1 1
    1       1    0 0 1 0 0 1 0 0 0 0 0 1 1 0 1 1 1 0 0 1 1 0 0 1 1
   38       2    0 1 0 1 0 1 0 1 0 0 1 0 1 1 1 0 1 1 0 1 1 1 0 0 0 0 1 1 0 0 1 1 1 0 0 0 1 1 1 1 1 1 1 1 0 0 0 1 0 0 0
    1       0    1 0 1 0 1 1 0 1 1 1 1 0 0 0 1 0 1 1 0 1 1 1 0 0 1 1 0 0 0 0 0 1 1 0 0 0 1 0 1 1 0 1 1 0 1 0 1 0 0 1 1
    1       1    0 0 1 0 0 1 0 0 1 0 0 0 0 0 1 1 1 0 0 1 1 0 0 1 1
   39       2    0 1 0 1 0 1 0 1 0 0 1 0 1 0 0 0 1 1 1 0 1 1 1 0 1 1 1 1 0 0 1 1 1 0 0 1 1 1 1 1 0 1 0 1 0 0 0 1 0 0 0
    1       1    1 0 1 0 1 0 0 1 1 1 1 1 0 0 0 0 1 0 0 0 0 1 1 0 1 1 0 0 0 0 0 1 1 0 1 0 1 0 1 0 0 1 1 0 1 0 1 0 0 0 1
    1       1    0 1 1 0 0 1 0 1 0 0 0 0 1 0 1 1 1 0 0 1 1 0 0 1 1
   40       2    0 1 0 1 0 1 0 1 0 0 1 0 1 1 1 0 0 1 0 0 1 1 1 0 0 1 1 1 0 0 0 0 1 0 0 1 1 1 1 1 0 1 0 1 0 0 1 1 0 0 0
    1       1    1 0 1 0 0 0 1 1 1 1 1 0 0 0 0 0 0 0 0 1 1 0 0 0 1 1 0 0 0 0 0 1 1 0 1 1 1 0 1 0 0 1 1 0 1 0 1 0 0 0 0
    1       1    0 1 1 0 0 1 0 1 0 0 1 1 1 1 0 1 1 0 0 1 1 0 0 1 1
   41       2    0 1 0 1 0 1 0 1 0 0 1 0 1 1 1 0 1 0 0 0 1 1 1 1 0 1 1 1 0 1 1 0 0 0 1 1 1 1 1 1 1 0 0 1 0 0 0 1 0 0 0
    0       0    1 0 1 1 1 0 0 1 1 1 1 1 0 0 1 1 0 1 0 1 0 1 0 1 1 1 0 0 0 0 0 0 0 0 1 0 1 1 1 0 0 1 1 0 1 0 1 0 1 1 1
    1       1    0 1 1 0 1 1 1 0 1 0 1 0 1 1 0 1 1 0 0 1 1 0 0 1 1
   42       2    0 1 0 1 0 1 0 1 0 0 1 0 1 0 1 0 1 1 1 0 1 1 0 0 0 1 1 1 0 0 1 1 1 0 0 1 1 1 1 1 1 1 1 1 0 0 0 1 0 0 0
    1       0    1 0 1 1 1 0 0 1 1 0 1 0 0 0 0 1 1 0 0 1 1 1 0 1 1 1 0 0 0 0 0 1 1 0 0 0 1 0 1 0 0 1 1 0 1 0 1 0 0 0 1
    1       1    0 0 1 0 0 1 0 1 0 0 0 0 1 0 1 1 1 0 0 1 1 0 0 1 1
   43       2    0 1 0 1 0 1 0 1 0 0 1 0 1 0 1 0 1 1 1 0 1 1 0 0 0 1 1 1 0 0 1 1 1 0 0 1 1 1 1 1 1 1 1 1 0 0 0 1 0 0 0
    1       0    1 0 1 1 1 0 0 1 1 0 1 0 0 0 0 1 1 0 0 1 1 1 0 1 1 1 0 0 0 0 0 1 1 0 0 0 1 0 1 0 0 1 1 0 1 0 1 0 0 0 1
    1       1    0 0 1 0 0 1 0 1 0 0 0 0 1 0 1 1 1 0 0 1 1 0 0 1 1
   44       2    0 1 0 1 0 1 0 1 0 0 1 0 1 0 1 0 1 1 1 0 1 1 0 0 0 1 1 1 0 0 1 1 1 0 0 1 1 1 1 1 1 1 1 1 0 0 0 1 0 0 0
    1       0    1 0 1 1 1 0 0 1 1 0 1 0 0 0 0 1 1 0 1 1 1 1 0 1 1 1 0 0 0 0 0 1 1 0 0 0 1 0 1 0 0 1 1 0 1 0 1 0 0 0 1
    1       1    0 0 1 0 0 1 0 1 0 0 0 0 1 0 1 1 1 0 0 1 1 0 0 1 1
   45       2    0 1 0 1 0 1 0 1 0 0 1 0 1 1 0 1 0 1 0 0 1 1 1 1 0 0 1 1 0 0 1 1 1 0 0 1 1 1 1 1 0 1 1 1 0 0 0 1 0 0 0
    1       1    1 0 1 0 1 1 0 1 1 1 1 0 0 0 0 0 0 0 0 0 0 0 0 0 1 1 0 0 0 0 0 1 1 1 1 0 1 0 1 0 0 1 1 0 1 0 0 0 0 1 0
    1       1    0 1 1 0 0 1 0 0 1 0 0 0 1 1 0 1 1 0 0 1 1 0 0 1 1
   46       2    0 1 0 1 0 1 0 1 0 0 1 0 0 1 1 0 0 1 0 0 1 0 1 0 1 1 1 1 0 0 0 0 1 0 1 1 1 1 1 1 1 1 0 1 0 0 0 1 0 0 0
    1       1    1 0 1 0 1 0 0 1 1 1 1 0 0 0 0 0 0 0 0 0 0 0 0 0 1 1 0 0 0 0 0 1 0 0 1 1 1 0 1 0 0 1 1 0 1 0 1 0 0 1 1
    1       1    0 0 1 0 0 1 0 0 0 0 0 0 0 0 0 1 1 0 0 1 1 0 0 1 1
   47       2    0 1 0 1 0 1 0 1 0 0 1 0 0 0 1 0 0 1 0 0 1 1 0 0 0 0 1 1 0 0 0 0 1 0 0 0 1 1 1 1 1 1 0 1 0 0 0 1 0 0 0
    1       1    1 0 1 0 1 1 0 1 0 1 1 0 0 0 0 1 1 1 0 0 0 1 0 0 1 1 0 0 0 0 0 1 1 0 1 0 1 0 1 0 0 1 1 0 1 0 1 0 0 1 1
    1       1    0 0 1 0 0 1 0 0 0 0 0 0 1 0 1 0 1 0 0 1 1 0 0 1 1
   48       2    0 1 0 1 0 1 0 1 0 0 1 0 0 1 1 0 0 1 0 0 1 0 1 0 1 1 1 1 0 0 0 0 1 0 1 1 1 1 1 1 1 1 0 1 0 0 0 1 0 0 0
    1       1    1 0 1 0 1 0 0 1 1 1 1 0 0 0 0 0 0 1 0 0 0 0 0 0 1 1 0 0 0 0 0 1 0 0 1 1 1 0 1 0 0 1 1 0 1 0 1 0 0 1 1
    1       1    0 0 1 0 0 1 0 0 0 0 0 0 0 0 0 0 1 0 0 1 1 0 0 1 1
   49       2    0 1 0 1 0 1 0 1 0 0 1 0 0 1 1 0 0 1 0 0 1 0 1 0 1 1 1 1 0 0 0 0 1 0 1 1 1 1 1 1 1 1 0 1 0 0 0 1 0 0 0
    1       1    1 0 1 0 1 0 0 1 1 1 1 0 0 0 0 0 0 0 0 0 0 0 0 0 1 1 0 0 0 0 0 1 0 0 1 1 1 0 1 0 0 1 1 0 1 0 1 0 0 1 1
    1       1    0 0 1 0 0 1 0 0 0 0 0 0 0 0 0 1 1 0 0 1 1 0 0 1 1
   50       2    0 1 0 1 0 1 0 1 0 0 1 0 0 1 1 0 1 1 1 0 1 1 1 0 0 0 1 1 0 0 1 0 1 0 1 1 1 1 1 1 1 1 0 1 0 0 0 1 0 0 0
    1       1    1 0 1 0 1 0 0 1 1 1 1 0 0 0 0 1 1 0 0 1 0 0 0 0 1 1 0 0 0 0 0 1 0 0 1 1 1 0 1 0 0 1 1 0 1 0 1 0 0 1 1
    1       1    0 0 1 0 0 1 0 0 0 0 1 0 0 0 1 1 1 0 0 1 1 0 0 1 1
   51       2    0 1 0 1 0 1 0 1 0 0 1 0 1 1 1 0 1 1 0 0 1 1 1 1 0 1 1 1 0 0 1 1 1 0 0 1 1 1 1 1 1 1 0 1 0 0 1 1 0 0 0
    1       1    1 0 1 0 1 0 0 1 1 1 1 1 0 0 0 0 0 0 0 0 0 0 0 0 1 1 0 0 0 0 0 1 1 0 1 1 0 1 1 0 0 1 1 0 1 0 1 0 0 0 1
    1       1    0 0 1 0 0 1 0 1 0 0 0 0 1 0 1 1 1 0 0 1 1 0 0 1 1
   52       2    0 1 0 1 0 1 0 1 0 0 1 0 0 1 1 0 1 1 0 0 1 1 0 0 0 0 1 1 0 0 0 0 1 0 1 1 1 1 1 1 1 1 0 1 0 0 0 1 0 0 0
    1       0    1 0 1 0 1 0 0 1 1 1 1 0 0 0 0 0 1 0 0 0 0 1 0 0 1 1 0 0 0 0 0 1 1 0 1 1 1 0 1 0 0 1 1 0 1 0 1 0 0 1 1
    1       1    0 0 1 1 0 1 0 0 1 0 0 0 0 0 1 0 1 0 0 1 1 0 0 1 1
   53       2    0 1 0 1 0 1 0 1 0 0 1 0 0 1 1 0 1 1 1 0 1 1 0 0 0 0 1 1 0 0 0 1 1 0 1 1 1 1 1 1 1 1 0 1 0 0 0 1 0 0 0
    1       0    1 0 1 0 1 0 0 1 1 1 1 0 0 0 0 1 1 0 0 1 0 1 0 0 1 1 0 0 0 0 0 1 1 0 0 1 1 0 1 0 0 1 1 0 1 0 1 0 0 1 1
    1       1    0 0 1 1 0 1 0 0 1 0 0 0 0 0 1 0 1 0 0 1 1 0 0 1 1
   54       2    0 1 0 1 0 1 0 1 0 0 1 0 0 1 1 0 0 1 0 0 1 1 1 0 0 1 1 1 0 0 0 0 1 0 0 1 1 1 1 1 1 1 0 1 0 0 0 1 0 0 0
    1       0    1 0 1 0 1 0 1 1 1 1 1 0 0 0 0 0 1 0 0 0 0 1 0 0 1 1 0 0 0 0 0 0 1 0 1 1 1 0 1 0 0 1 1 0 1 0 1 0 0 1 1
    1       1    0 0 1 1 0 1 0 0 1 0 0 0 0 0 1 0 1 0 0 1 1 0 0 1 1
   8800000.00000000        1618033.00000000       0.000000000000000E+000
  1.136363636363636E-007   5149923.00000000        5617365.00000000     
           1           4          35
   609815.000000000        7979547.00000000        4099510.00000000     
   5149923.00000000        7925522.00000000        352773.000000000     
   7487119.00000000        85703.0000000000        4613220.00000000     
   6896873.00000000        7794752.00000000        78388.0000000000     
   1801461.00000000        2793477.00000000        6833412.00000000     
   1652423.00000000        8118355.00000000        8000725.00000000     
   4124658.00000000        2601811.00000000        861646.000000000     
   2695497.00000000        8114489.00000000        542411.000000000     
   1226240.00000000        6128109.00000000        5461767.00000000     
   2508848.00000000        3793082.00000000        1903266.00000000     
   2569089.00000000        4693121.00000000        5691759.00000000     
   2314847.00000000        3398305.00000000        5424203.00000000     
   2101136.00000000        2336661.00000000        4423737.00000000     
   1591873.00000000        8475335.00000000        4151822.00000000     
   2508908.00000000        1336211.00000000        5969640.00000000     
   685136.000000000        2517999.00000000        39661.0000000000     
   3513942.00000000        3048253.00000000        3975471.00000000     
   252108.000000000        7961884.00000000        1960828.00000000     
   1417992.00000000     
   8800000.00000000        1618033.00000000       0.000000000000000E+000
  1.136363636363636E-007   5892024.00000000        5672701.00000000     
           1          41          17
   1041761.00000000        932010.000000000        7047.00000000000     
   6784614.00000000        1687851.00000000        3317301.00000000     
   5808576.00000000        4926914.00000000        1338510.00000000     
   3190170.00000000        5610749.00000000        2486825.00000000     
   7557793.00000000        3611747.00000000        6516922.00000000     
   794249.000000000        7365304.00000000        4009562.00000000     
   7001689.00000000        1977880.00000000        1137706.00000000     
   7941140.00000000        5638269.00000000        451776.000000000     
   5765082.00000000        3438000.00000000        7197672.00000000     
   8566506.00000000        8611782.00000000        5915770.00000000     
   4435127.00000000        4873409.00000000        7473848.00000000     
   6107576.00000000        3668383.00000000        2010220.00000000     
   2509537.00000000        4352043.00000000        4829728.00000000     
   7477275.00000000        5892024.00000000        3189963.00000000     
   1133004.00000000        2320222.00000000        1168160.00000000     
   5460375.00000000        4437946.00000000        6373253.00000000     
   3937436.00000000        3560755.00000000        2483184.00000000     
   2668360.00000000        1799678.00000000        934505.000000000     
   1616501.00000000     
   8800000.00000000        1618033.00000000       0.000000000000000E+000
  1.136363636363636E-007   6716823.00000000        4613765.00000000     
           1          53          29
   7258769.00000000        5851395.00000000        7429443.00000000     
   7607735.00000000        8188371.00000000        8561535.00000000     
   8488154.00000000        1054599.00000000        3739784.00000000     
   3824291.00000000        3864048.00000000        4752738.00000000     
   8473759.00000000        4461264.00000000        3860828.00000000     
   5277721.00000000        838994.000000000        2742538.00000000     
   2792344.00000000        1530084.00000000        4432210.00000000     
   6913165.00000000        2618919.00000000        1041354.00000000     
   3049062.00000000        994087.000000000        4939241.00000000     
   1671734.00000000        3767141.00000000        2547794.00000000     
   2818206.00000000        643259.000000000        7608380.00000000     
   1661006.00000000        6396271.00000000        3365635.00000000     
   4540107.00000000        4616102.00000000        7450882.00000000     
   3541189.00000000        6802905.00000000        5599901.00000000     
   4687903.00000000        8599167.00000000        1686626.00000000     
   7002570.00000000        3032958.00000000        1684050.00000000     
   5294761.00000000        16081.0000000000        2601932.00000000     
   6467033.00000000        6716823.00000000        2786937.00000000     
   7586978.00000000     
