          63          54   1.00000000000000     
    1       2    0 1 0 0 1 0 0 1 0 0 1 0 0 1 1 1 0 1 0 1 0 0 1 0 1 0 1 0 0 1 1 1 0 1 0 0 1 1 1 0 1 0 1 0 0 0 0 0 1 1 1
    0       1    0 1 0 1 0 0 1 1 0 1 1 1 0 1 0 0 0 1 1 1 1 1 0 0 1 1 0 0 0 0 0 1 0 0 1 0 1 0 1 0 0 1 1 0 1 1 0 1 0 1 0
    1       1    1 1 1 1 1 0 0 0 1 0 0 1 0 1 1 1 0 0 0 1 1 0 0 1 1
    2       2    0 1 0 0 1 0 0 1 0 0 1 0 0 1 1 1 1 1 0 1 0 1 1 0 1 0 1 0 1 1 1 1 0 1 0 1 1 1 1 0 1 0 1 0 0 0 0 0 1 1 1
    0       1    0 1 0 1 0 0 0 1 0 1 1 1 0 1 0 0 0 1 0 1 1 1 0 1 1 1 0 0 0 0 0 1 0 0 1 1 1 0 1 1 0 1 1 0 1 1 0 1 0 1 0
    1       1    1 1 1 1 1 0 0 0 1 0 0 1 0 1 1 1 0 0 0 1 1 0 0 1 1
    3       2    0 1 0 0 1 0 0 1 0 0 1 0 0 1 1 1 1 1 0 1 0 1 0 0 0 0 0 0 1 1 1 1 1 1 0 1 1 1 1 0 1 0 1 0 0 1 0 0 1 1 1
    0       1    0 1 0 0 0 0 0 1 0 0 1 1 0 1 0 0 0 0 1 1 1 1 0 1 1 1 0 0 0 0 0 1 0 0 1 1 1 0 1 1 0 1 1 0 1 1 0 1 0 0 1
    1       1    1 1 1 1 1 0 0 0 1 0 0 0 0 1 1 1 0 1 0 1 1 0 0 1 1
    4       2    0 1 0 0 1 0 0 1 0 0 1 0 0 1 1 1 1 1 0 1 0 1 0 0 0 0 0 0 1 1 1 1 1 1 0 1 1 1 1 0 1 0 1 0 0 1 0 0 1 1 1
    0       1    0 1 0 0 0 0 0 1 0 0 1 1 0 1 0 0 0 1 1 1 1 1 0 1 1 1 0 0 0 0 0 1 0 0 1 1 1 0 1 1 0 1 1 0 1 1 0 1 0 0 1
    1       1    1 1 1 1 1 0 0 0 1 0 0 1 0 1 1 1 0 0 0 1 1 0 0 1 1
    5       2    0 1 0 0 1 0 0 1 0 0 1 0 1 1 0 1 0 0 0 1 0 1 0 0 1 0 0 0 0 1 0 1 1 1 0 0 1 1 1 0 1 0 0 1 0 1 0 0 1 1 1
    0       1    1 0 0 1 0 1 0 1 1 0 1 1 0 1 0 1 0 1 1 1 1 1 0 1 1 1 0 0 0 0 0 1 1 0 1 1 1 0 1 1 0 1 1 0 1 1 0 1 0 1 1
    1       1    1 1 1 1 1 0 0 1 1 0 0 1 0 1 1 0 0 1 0 1 1 0 0 1 1
    6       2    0 1 0 0 1 0 0 1 0 0 1 0 1 1 0 1 0 0 0 1 0 1 0 0 1 0 0 0 0 1 0 1 1 1 0 0 1 1 1 0 1 0 0 1 0 1 0 0 1 1 1
    0       1    1 0 0 1 0 1 0 1 1 0 1 1 0 1 0 1 0 1 1 1 1 1 0 1 1 1 0 0 0 0 0 1 1 0 1 1 1 0 1 1 0 1 1 0 1 1 0 1 0 1 1
    1       1    1 1 1 1 1 0 0 1 1 0 0 1 0 1 1 0 0 1 0 1 1 0 0 1 1
    7       2    0 1 0 0 1 0 0 1 0 0 1 0 1 1 0 1 0 0 0 1 0 1 0 0 1 0 0 0 0 1 0 1 1 1 0 0 1 1 1 0 1 0 0 1 0 1 0 0 1 1 1
    0       1    1 0 0 1 0 1 0 1 1 0 1 1 0 1 0 1 0 1 1 1 1 1 0 1 1 1 0 0 0 0 0 1 1 0 1 1 1 0 1 1 0 1 1 0 1 1 0 1 0 1 1
    1       1    1 1 1 1 1 0 0 1 1 0 0 1 0 1 1 0 0 1 0 1 1 0 0 1 1
    8       2    0 1 0 0 1 0 0 1 0 0 1 0 0 1 0 1 1 0 0 1 0 1 0 0 1 0 0 1 0 1 1 1 1 1 0 0 1 1 1 0 1 0 1 0 0 1 0 0 1 1 1
    0       1    0 0 0 1 0 0 0 1 1 0 1 1 0 1 0 0 0 1 1 1 1 1 0 1 1 1 0 0 0 0 0 1 0 0 1 1 1 0 1 1 0 1 1 0 1 1 0 1 0 1 1
    1       1    1 1 1 1 1 0 0 1 1 0 0 1 0 0 1 0 0 1 0 1 1 0 0 1 1
    9       2    0 1 0 0 1 0 0 1 0 0 1 0 1 1 0 1 1 0 0 1 0 1 0 0 1 0 1 0 1 1 1 1 1 1 0 0 1 1 1 0 1 0 0 1 0 0 0 0 1 1 1
    0       1    1 1 0 1 0 0 0 1 1 0 1 1 0 1 1 0 0 1 1 1 1 1 0 1 1 1 0 0 0 0 0 0 1 0 1 1 1 0 0 1 0 1 1 0 1 1 0 1 0 0 1
    1       1    1 1 1 1 1 0 0 1 1 0 0 1 0 1 1 1 0 1 0 1 1 0 0 1 1
   10       2    0 1 0 0 1 0 0 1 0 0 1 0 1 1 0 1 0 1 0 0 0 1 0 1 1 0 1 0 0 1 1 1 1 1 0 1 1 1 1 0 1 0 0 1 0 0 0 0 1 1 1
    0       1    1 1 0 1 0 1 0 1 1 0 1 1 0 1 0 1 0 1 1 1 1 1 0 1 1 1 0 0 0 0 0 1 1 1 1 1 1 0 1 1 0 1 1 0 1 1 0 1 0 0 1
    1       1    1 1 1 1 1 0 0 1 1 0 0 1 0 1 1 0 0 1 0 1 1 0 0 1 1
   11       2    0 1 0 0 1 0 0 1 0 0 1 0 0 1 1 1 1 1 0 1 0 1 1 0 1 0 1 0 1 1 1 1 1 1 0 0 1 1 1 0 1 0 1 0 0 0 0 0 1 1 1
    0       1    0 1 0 1 0 0 0 1 0 0 1 1 0 1 0 0 0 1 1 1 1 1 0 0 1 1 0 0 0 0 0 1 1 0 1 1 1 0 1 1 0 1 1 0 1 1 0 1 0 0 1
    1       1    1 1 1 1 1 0 0 1 1 1 0 1 0 1 1 1 0 0 0 1 1 0 0 1 1
   12       2    0 1 0 0 1 0 0 1 0 0 1 0 0 1 1 1 1 1 0 1 0 0 0 0 1 0 1 0 1 1 1 0 1 1 0 1 1 1 1 0 1 0 1 0 0 0 0 0 1 1 1
    0       1    0 1 0 1 0 0 0 1 1 0 1 1 0 1 0 0 1 1 1 1 1 1 0 1 1 1 0 0 0 0 0 1 0 0 1 1 1 1 1 1 0 1 1 0 1 1 0 1 0 0 1
    1       1    1 1 1 1 1 0 0 1 1 0 0 1 0 1 1 1 0 0 0 1 1 0 0 1 1
   13       2    0 1 0 0 1 0 0 1 0 0 1 0 0 1 1 1 1 1 0 0 0 1 1 0 1 0 1 0 1 1 1 1 1 1 0 0 1 1 1 0 1 0 1 0 0 0 0 0 1 1 1
    0       1    0 1 0 1 0 0 0 1 0 0 1 1 0 1 1 0 0 1 1 1 1 1 0 0 1 1 0 0 0 0 0 0 1 0 1 1 0 0 1 1 0 1 1 0 1 1 0 1 0 0 1
    1       1    1 1 1 1 1 0 0 1 1 1 0 1 0 1 1 1 0 1 0 1 1 0 0 1 1
   14       2    0 1 0 0 1 0 0 1 0 0 1 0 0 1 1 1 1 1 0 0 0 0 0 0 1 0 0 0 1 1 1 1 1 1 0 0 0 1 1 0 1 0 1 0 0 0 0 0 1 1 1
    0       1    0 1 0 1 0 0 0 1 0 0 1 1 0 1 0 0 0 1 1 1 1 1 0 1 1 1 0 0 0 0 0 0 1 0 1 1 0 0 1 1 0 1 1 0 1 1 0 1 0 0 1
    1       1    1 1 1 1 1 0 0 1 1 0 0 1 0 1 1 1 0 0 0 1 1 0 0 1 1
   15       2    0 1 0 0 1 0 0 1 0 0 1 0 0 1 1 1 1 1 0 0 0 1 0 0 1 0 1 0 1 1 1 1 1 1 0 0 1 1 1 0 1 0 1 0 0 0 0 0 1 1 1
    0       1    0 1 0 1 0 0 0 1 1 0 1 1 0 1 0 0 0 1 1 1 1 1 0 1 1 1 0 0 0 0 0 0 1 0 1 1 1 0 1 1 0 1 1 0 1 1 0 1 0 0 1
    1       1    1 1 1 1 1 0 0 1 1 0 0 1 0 1 1 1 0 0 0 1 1 0 0 1 1
   16       2    0 1 0 0 1 0 0 1 0 0 1 0 0 1 1 1 1 0 0 0 0 0 1 0 1 0 1 0 1 1 1 0 1 1 0 0 1 1 1 0 1 0 1 0 0 0 0 0 1 1 1
    0       1    0 1 0 1 0 0 0 1 0 0 1 1 0 1 1 0 0 1 1 1 1 0 0 1 1 1 0 0 0 0 0 0 1 0 1 1 1 0 1 1 0 1 1 0 1 1 0 1 0 0 1
    1       1    1 1 1 1 1 0 0 1 1 0 0 1 0 1 1 1 0 1 0 1 1 0 0 1 1
   17       2    0 1 0 0 1 0 0 1 0 0 1 0 0 1 1 1 1 1 0 1 0 1 0 0 1 0 1 0 1 1 1 1 1 1 0 0 1 1 1 0 1 0 1 0 0 0 0 0 1 1 1
    0       1    0 1 0 1 0 0 0 1 1 0 1 1 0 1 0 0 1 1 1 1 1 1 0 0 1 1 0 0 0 0 0 1 0 0 1 1 0 1 1 1 0 1 1 0 1 1 0 1 0 0 1
    1       1    1 1 1 1 1 0 0 1 1 1 0 1 0 1 1 1 0 0 0 1 1 0 0 1 1
   18       2    0 1 0 0 1 0 0 1 0 0 1 0 0 1 1 1 1 1 0 0 0 1 1 0 1 0 1 0 1 1 1 1 1 1 0 1 1 1 1 0 1 0 1 0 0 0 0 0 1 1 1
    0       1    0 1 0 1 0 0 0 1 0 0 1 1 0 1 0 0 0 1 0 1 1 1 0 1 1 1 0 0 0 0 0 1 1 0 1 1 1 0 1 1 0 1 1 0 1 1 0 1 0 0 1
    1       1    1 1 1 1 1 0 0 1 1 0 0 1 0 1 1 1 0 0 0 1 1 0 0 1 1
   19       2    0 1 0 0 1 0 0 1 0 0 1 0 0 1 1 1 1 1 0 0 0 1 0 0 1 0 1 0 1 1 1 1 1 1 0 0 1 1 1 0 1 0 1 0 0 0 0 0 1 1 1
    0       1    0 1 0 1 0 0 0 1 0 0 1 1 0 1 0 0 0 1 1 1 1 1 0 1 1 1 0 0 0 0 0 0 1 0 1 0 1 0 1 1 0 1 1 0 1 1 0 1 0 0 1
    1       1    1 1 1 1 1 0 0 1 1 0 0 1 0 1 1 1 0 1 0 1 1 0 0 1 1
   20       2    0 1 0 0 1 0 0 1 0 0 1 0 0 1 1 1 1 1 0 1 0 1 1 0 1 0 1 0 1 1 1 1 1 1 0 0 1 1 1 0 1 0 1 0 0 0 0 0 1 1 1
    0       1    0 1 0 1 0 0 0 1 0 0 1 1 0 1 0 0 0 1 1 1 1 1 0 0 1 1 0 0 0 0 0 1 1 0 1 1 1 0 1 1 0 1 1 0 1 1 0 1 0 0 1
    1       1    1 1 1 1 1 0 0 1 1 1 0 1 0 1 1 1 0 0 0 1 1 0 0 1 1
   21       2    0 1 0 0 1 0 0 1 0 0 1 0 0 1 1 1 0 1 1 1 0 1 1 0 1 0 1 0 1 1 1 0 1 1 0 0 1 1 1 0 1 0 1 0 0 0 0 0 1 1 1
    0       1    0 1 0 1 0 0 0 1 1 0 1 1 0 0 0 0 0 1 1 1 1 1 0 1 1 1 0 0 0 0 0 1 0 1 1 1 1 1 1 1 0 1 1 0 1 1 0 1 0 0 1
    1       1    1 1 1 1 1 0 0 1 1 0 0 1 0 1 1 1 0 1 0 1 1 0 0 1 1
   22       2    0 1 0 0 1 0 0 1 0 0 1 0 0 1 0 1 1 1 0 0 0 0 0 0 1 0 0 0 0 1 1 1 1 1 0 0 1 1 1 0 1 0 1 0 0 0 0 0 1 1 1
    0       1    0 1 0 1 0 0 0 1 0 1 1 1 0 1 0 0 0 1 1 1 1 1 0 1 1 1 0 0 0 0 0 0 0 0 1 1 1 0 1 1 0 1 1 0 1 1 0 1 0 0 1
    1       1    1 1 1 1 1 0 0 1 1 0 0 1 0 0 1 1 0 0 0 1 1 0 0 1 1
   23       2    0 1 0 0 1 0 0 1 0 0 1 0 0 1 1 1 1 1 0 1 0 1 1 0 1 0 1 0 1 1 1 1 1 1 0 0 1 1 1 0 1 0 1 0 0 0 0 0 1 1 1
    0       1    0 1 0 1 0 0 0 1 0 0 1 1 0 1 0 0 0 1 1 1 1 1 0 0 1 1 0 0 0 0 0 0 1 0 1 0 1 0 1 1 0 1 1 0 1 1 0 1 0 0 1
    1       1    1 1 1 1 1 0 0 1 1 1 1 1 0 1 1 1 0 1 0 1 1 0 0 1 1
   24       2    0 1 0 0 1 0 0 1 0 0 1 0 0 0 1 1 1 1 0 1 0 1 0 0 1 0 1 1 1 1 1 1 1 1 0 0 1 1 1 0 1 0 1 0 0 0 0 0 1 1 1
    0       1    0 1 0 1 0 0 0 1 1 0 1 1 0 1 0 1 0 1 1 1 1 1 0 1 1 1 0 0 0 0 0 1 0 0 1 0 1 1 1 1 1 1 1 0 1 1 0 1 0 0 1
    1       1    1 1 1 1 1 0 0 1 1 1 0 1 0 1 1 1 0 1 0 1 1 0 0 1 1
   25       2    0 1 0 0 1 0 0 1 0 0 1 0 0 0 1 1 1 1 0 0 0 1 0 0 1 0 1 0 1 1 1 0 1 1 0 0 1 1 1 0 1 0 1 0 0 0 0 0 1 1 1
    0       1    0 1 0 1 0 0 0 1 0 0 1 1 0 1 1 0 0 1 1 1 1 1 0 0 1 1 0 0 0 0 0 1 0 0 1 1 1 0 1 1 0 1 1 0 1 1 0 1 0 0 1
    1       1    1 1 1 1 1 0 0 1 1 0 0 1 0 1 1 1 0 1 0 1 1 0 0 1 1
   26       2    0 1 0 0 1 0 0 1 0 0 1 0 0 1 1 1 1 1 0 1 0 1 1 0 0 0 1 0 1 1 1 1 1 1 0 0 1 1 1 0 1 0 1 0 0 0 0 0 1 1 1
    0       1    0 0 0 1 0 0 0 1 0 0 1 1 0 1 0 0 0 1 1 1 1 1 0 1 1 1 0 0 0 0 0 1 0 0 1 1 1 0 1 1 0 1 1 0 1 1 0 1 0 1 0
    1       1    1 1 1 1 1 1 0 0 1 0 0 0 0 1 1 0 0 0 0 1 1 0 0 1 1
   27       2    0 1 0 0 1 0 0 1 0 0 1 0 0 0 1 1 1 1 0 0 0 0 1 0 1 0 1 0 0 1 1 1 0 1 0 1 1 1 1 0 1 0 1 0 0 0 0 0 1 1 1
    0       1    0 1 0 0 0 0 0 1 0 1 1 1 0 1 0 0 0 1 1 1 1 1 0 0 1 1 0 0 0 0 0 1 0 0 1 1 1 0 1 0 0 1 1 0 1 1 0 1 0 1 1
    1       1    1 1 1 1 1 0 0 1 1 0 0 1 0 1 1 1 0 0 0 1 1 0 0 1 1
   28       2    0 1 0 0 1 0 0 1 0 0 1 0 0 1 1 1 1 1 0 1 0 0 0 0 1 0 1 0 1 1 1 1 1 1 0 1 1 1 1 0 1 0 1 0 0 1 0 0 1 1 1
    0       1    0 1 0 0 0 0 0 1 0 0 1 1 0 1 0 0 0 1 1 1 1 1 0 1 1 1 0 0 0 0 0 1 0 0 1 1 1 1 1 1 0 1 1 0 1 1 0 1 0 0 1
    1       1    1 1 1 1 1 0 0 1 1 0 0 1 0 0 1 1 0 0 0 1 1 0 0 1 1
   29       2    0 1 0 0 1 0 0 1 0 0 1 0 0 1 1 1 0 1 0 0 0 1 0 1 1 0 1 0 1 1 1 1 1 1 0 1 1 1 1 0 1 0 1 0 0 1 0 0 1 1 1
    0       1    0 1 0 0 0 0 0 1 1 0 1 1 0 1 0 0 0 1 1 1 1 1 0 1 1 1 0 0 0 0 0 1 0 0 1 1 1 0 1 1 0 1 1 0 1 1 0 1 0 0 1
    1       1    1 1 1 1 1 0 0 1 1 0 0 1 0 1 1 1 0 1 0 1 1 0 0 1 1
   30       2    0 1 0 0 1 0 0 1 0 0 1 0 0 1 1 1 1 1 0 0 0 1 0 0 1 0 1 0 1 1 1 1 1 1 0 0 1 1 1 0 1 0 1 0 0 1 0 0 1 1 1
    0       1    0 1 0 0 0 0 0 1 1 0 1 1 0 1 0 1 0 1 1 1 1 1 0 1 1 1 0 0 0 0 0 1 0 0 1 0 1 0 1 1 0 1 1 0 1 1 0 1 0 0 1
    1       1    1 1 1 1 1 0 0 1 1 1 0 1 0 1 1 1 0 1 0 1 1 0 0 1 1
   31       2    0 1 0 0 1 0 0 1 0 0 1 0 0 1 1 1 1 1 0 0 0 1 0 0 1 0 1 0 1 1 1 1 1 1 0 1 1 1 1 0 1 0 1 0 0 1 0 0 1 1 1
    0       1    0 1 0 0 0 0 0 1 1 0 1 1 0 1 0 1 0 1 1 1 1 1 0 1 1 1 0 0 0 0 0 1 0 0 1 0 1 0 1 1 0 1 1 0 1 1 0 1 0 0 1
    1       1    1 1 1 1 1 0 0 1 1 0 0 1 0 1 1 1 0 0 0 1 1 0 0 1 1
   32       2    0 1 0 0 1 0 0 1 0 0 1 0 0 1 1 1 1 1 0 0 0 0 0 0 1 0 1 0 1 1 1 1 1 1 0 1 1 1 1 0 1 0 1 0 0 1 0 0 1 1 1
    0       1    0 1 0 0 0 0 0 1 0 0 1 1 0 1 0 0 0 1 1 1 1 1 0 1 1 1 0 0 0 0 0 1 0 0 1 1 1 0 1 1 0 1 1 0 1 1 0 1 0 0 1
    1       1    1 1 1 1 1 0 0 1 1 0 0 1 0 0 1 1 0 0 0 1 1 0 0 1 1
   33       2    0 1 0 0 1 0 0 1 0 0 1 0 0 1 1 1 1 1 0 1 0 1 0 0 1 0 1 0 1 1 1 1 1 1 0 0 1 1 1 0 1 0 1 0 0 1 0 0 1 1 1
    0       1    0 1 0 0 0 0 0 1 1 0 1 1 0 1 0 1 0 1 1 1 1 1 0 1 1 1 0 0 0 0 0 1 0 0 1 0 1 1 1 1 0 1 1 0 1 1 0 1 0 0 1
    1       1    1 1 1 1 1 0 0 1 1 1 0 1 0 1 1 1 0 1 0 1 1 0 0 1 1
   34       2    0 1 0 0 1 0 0 1 0 0 1 0 0 1 1 1 1 1 0 1 0 1 0 0 1 0 1 0 1 1 1 1 1 1 0 1 1 1 1 0 1 0 1 0 0 1 0 0 1 1 1
    0       1    0 1 0 0 0 0 0 1 0 0 1 1 0 1 0 1 0 0 1 1 1 1 0 1 1 1 0 0 0 0 0 1 0 0 1 1 1 0 1 1 0 1 1 0 1 1 0 1 0 0 1
    1       1    1 1 1 1 1 0 0 1 1 0 0 1 0 0 1 1 0 0 0 1 1 0 0 1 1
   35       2    0 1 0 0 1 0 0 1 0 0 1 0 0 1 1 1 1 1 0 0 0 1 0 0 1 0 1 0 1 1 1 1 1 1 0 1 1 1 1 0 1 0 1 0 0 1 0 0 1 1 1
    0       1    0 1 0 0 0 0 0 1 1 0 1 1 0 1 0 0 0 1 0 1 1 1 0 1 1 1 0 0 0 0 0 1 0 0 1 0 1 1 1 1 0 1 1 0 1 1 0 1 0 0 1
    1       1    1 1 1 1 1 0 0 1 1 0 0 1 0 0 1 1 0 0 0 1 1 0 0 1 1
   36       2    0 1 0 0 1 0 0 1 0 0 1 0 0 1 1 1 1 1 0 1 0 0 0 0 1 0 1 0 1 1 1 1 1 1 0 1 1 1 1 0 1 0 1 0 0 1 0 0 1 1 1
    0       1    0 1 0 0 0 0 0 1 0 0 1 1 0 1 0 1 0 1 1 1 1 1 0 1 1 1 0 0 0 0 0 1 0 0 1 1 1 0 1 1 0 1 1 0 1 1 0 1 0 0 1
    1       1    1 1 1 1 1 0 0 1 1 0 0 1 0 1 1 1 0 0 0 1 1 0 0 1 1
   37       2    0 1 0 0 1 0 0 1 0 0 1 0 0 1 1 1 0 1 0 0 0 0 0 0 0 0 1 0 1 1 0 1 1 1 0 1 1 1 1 0 1 0 0 1 0 1 0 0 1 1 1
    0       1    1 1 0 0 0 1 0 1 0 0 1 1 0 1 0 1 0 1 1 1 1 1 0 1 1 1 0 0 0 0 0 1 1 0 1 1 1 0 1 1 0 1 1 0 1 1 0 1 0 0 1
    1       1    1 1 1 1 1 0 0 1 1 0 0 1 0 1 1 1 0 0 0 1 1 0 0 1 1
   38       2    0 1 0 0 1 0 0 1 0 0 1 0 0 1 1 1 1 1 0 0 0 0 0 0 1 0 1 0 1 1 0 1 1 1 0 0 1 1 1 0 1 0 1 0 0 1 0 0 1 1 1
    0       1    0 1 0 0 0 0 0 1 1 0 1 1 0 1 0 1 0 1 1 1 1 1 0 1 1 1 0 0 0 0 0 1 0 0 1 0 1 0 1 1 0 1 1 0 1 1 0 1 0 0 1
    1       1    1 1 1 1 1 0 0 1 1 0 0 1 0 1 1 1 0 0 0 1 1 0 0 1 1
   39       2    0 1 0 0 1 0 0 1 0 0 1 0 0 1 1 1 1 1 0 1 0 1 0 0 1 0 1 0 1 1 1 1 1 1 0 1 1 1 1 0 1 0 1 0 0 1 0 0 1 1 1
    0       1    0 1 0 0 0 0 0 1 0 0 1 1 0 1 0 1 0 1 1 1 1 1 0 1 1 1 0 0 0 0 0 1 0 0 1 1 1 0 1 1 0 1 1 0 1 1 0 1 0 0 1
    1       1    1 1 1 1 1 0 0 1 1 1 1 1 0 1 1 1 0 1 0 1 1 0 0 1 1
   40       2    0 1 0 0 1 0 0 1 0 0 1 0 0 1 1 1 1 1 0 0 0 1 0 0 1 0 1 0 1 1 1 1 1 1 0 1 1 1 1 0 1 0 1 0 0 1 0 0 1 1 1
    0       1    0 1 0 0 0 0 0 1 1 0 1 1 0 1 0 0 0 1 0 1 1 1 0 1 1 1 0 0 0 0 0 1 0 0 1 0 1 1 1 1 0 1 1 0 1 1 0 1 0 0 1
    1       1    1 1 1 1 1 0 0 1 1 0 0 0 0 0 1 1 0 0 0 1 1 0 0 1 1
   41       2    0 1 0 0 1 0 0 1 0 0 1 0 0 1 1 1 1 1 0 1 1 1 0 0 1 0 0 0 1 1 1 1 1 1 0 1 1 1 1 0 1 0 1 0 0 1 0 0 1 1 1
    0       1    0 1 0 0 0 0 0 1 0 0 1 1 0 1 0 1 0 1 1 1 1 1 0 1 1 1 0 0 0 0 0 1 0 0 1 0 1 0 1 1 0 1 1 0 1 1 0 1 0 0 1
    1       1    1 1 1 1 1 0 0 1 1 0 0 1 0 1 1 1 0 0 0 1 1 0 0 1 1
   42       2    0 1 0 0 1 0 0 1 0 0 1 0 0 1 1 1 1 1 1 1 0 1 0 0 0 0 0 0 1 1 1 1 1 1 0 0 1 1 1 0 1 0 1 0 0 0 0 0 1 1 1
    0       1    0 1 1 0 0 0 0 1 0 0 1 1 0 1 0 0 0 1 1 1 1 1 0 1 1 1 0 0 0 0 0 1 0 1 1 1 1 1 1 1 0 1 1 0 1 1 0 1 0 0 1
    1       1    1 1 1 1 1 0 0 1 1 0 0 1 1 1 1 1 0 1 0 1 1 0 0 1 1
   43       2    0 1 0 0 1 0 0 1 0 0 1 0 0 1 1 1 1 1 0 1 0 1 0 0 0 0 1 0 1 1 1 1 1 1 0 0 1 1 1 0 1 0 1 0 0 1 0 0 1 1 1
    0       1    0 1 0 1 0 0 0 1 1 0 1 1 0 1 0 0 0 1 1 1 1 1 0 1 1 1 0 0 0 0 0 1 0 0 1 1 0 0 1 1 0 1 1 0 1 1 0 1 0 0 1
    1       1    1 1 1 1 1 0 0 0 1 0 0 1 0 1 1 1 0 0 0 1 1 0 0 1 1
   44       2    0 1 0 0 1 0 0 1 0 0 1 0 0 0 1 1 0 1 0 1 0 0 0 0 1 0 0 0 1 1 1 1 0 1 0 1 1 1 1 0 1 0 1 1 0 0 0 0 1 1 1
    0       1    0 0 0 0 0 0 0 1 1 0 1 1 0 1 0 0 0 0 1 1 0 1 0 1 1 1 0 0 0 0 0 1 1 0 1 1 1 0 1 1 0 1 1 0 1 1 0 1 0 0 0
    1       1    1 1 1 1 1 0 0 0 1 0 0 1 0 1 1 1 0 0 0 1 1 0 0 1 1
   45       2    0 1 0 0 1 0 0 1 0 0 1 0 0 1 1 1 0 1 0 1 0 0 0 0 1 0 0 0 0 1 1 1 1 1 0 0 1 1 1 0 1 0 1 1 0 0 0 0 1 1 1
    0       1    0 0 0 0 0 0 0 1 1 0 1 1 0 1 0 0 0 1 1 1 1 0 0 1 1 1 0 0 0 0 0 1 1 0 1 1 1 0 1 0 0 1 1 0 1 1 0 1 0 0 0
    1       1    1 1 1 1 1 0 0 0 1 0 0 1 0 1 1 1 0 0 0 1 1 0 0 1 1
   46       2    0 1 0 0 1 0 0 1 0 0 1 0 0 1 1 1 0 1 0 1 0 0 0 0 1 0 0 0 0 1 1 1 1 1 1 0 1 1 1 0 1 0 1 1 0 0 0 0 1 1 1
    0       1    0 0 0 0 0 0 0 1 1 0 1 1 0 1 0 0 0 1 1 1 1 0 0 1 1 1 0 0 0 0 0 1 1 0 1 1 1 0 1 1 0 1 1 0 1 1 0 1 0 0 0
    1       1    1 1 1 1 1 0 0 0 1 0 0 1 0 1 1 1 0 0 0 1 1 0 0 1 1
   47       2    0 1 0 0 1 0 0 1 0 0 1 0 0 1 1 1 0 1 0 1 0 0 0 0 1 0 0 0 1 1 1 1 1 1 1 1 0 1 1 0 1 0 1 1 0 0 0 0 1 1 1
    0       1    0 0 0 0 0 0 0 1 0 0 1 1 0 1 0 0 0 1 1 1 1 1 0 1 1 1 0 0 0 0 0 1 1 0 1 1 0 0 1 1 0 1 1 0 1 1 0 1 0 0 0
    1       1    1 1 1 1 1 0 0 0 1 0 0 1 0 1 1 1 0 0 0 1 1 0 0 1 1
   48       2    0 1 0 0 1 0 0 1 0 0 1 0 0 1 1 1 0 1 0 1 0 1 0 0 1 0 0 0 0 0 0 1 1 1 0 1 1 1 1 0 1 0 1 1 0 0 0 0 1 1 1
    0       1    0 0 0 0 0 0 0 1 1 0 1 1 0 1 1 0 0 1 1 1 1 1 0 1 1 1 0 0 0 0 0 1 1 0 1 1 1 0 1 1 0 1 1 0 1 1 0 1 0 0 0
    1       1    1 1 1 1 1 0 0 0 1 0 0 1 0 1 0 1 0 0 0 1 1 0 0 1 1
   49       2    0 1 0 0 1 0 0 1 0 0 1 0 0 1 1 1 0 1 0 1 0 0 0 0 1 0 1 0 1 1 1 1 1 1 0 0 1 1 1 0 1 0 1 0 0 1 0 0 1 1 1
    0       1    0 1 0 1 0 0 1 1 0 0 1 1 0 1 0 0 0 1 1 1 1 1 0 1 1 1 0 0 0 0 0 1 0 0 1 0 1 0 1 1 0 1 1 0 1 1 0 1 0 0 0
    1       1    1 1 1 1 1 0 0 1 1 0 0 1 0 0 1 1 0 0 0 1 1 0 0 1 1
   50       2    0 1 0 0 1 0 0 1 0 0 1 0 1 1 1 1 1 1 0 0 0 1 0 0 1 0 1 0 1 1 1 1 1 1 0 0 1 1 1 0 1 0 1 0 0 1 0 0 1 1 1
    0       0    0 1 0 1 0 0 0 1 0 0 1 1 0 1 0 1 0 1 1 1 1 1 0 1 1 1 0 0 0 0 0 1 1 0 1 0 1 0 1 1 0 1 1 0 1 1 1 1 0 0 1
    1       1    1 1 1 1 1 0 0 1 1 1 0 1 0 1 1 1 0 1 0 1 1 0 0 1 1
   51       2    0 1 0 0 1 0 0 1 0 0 1 0 0 1 1 1 0 0 0 1 0 1 0 0 1 0 1 0 1 1 1 0 0 0 0 1 1 1 1 0 1 1 1 0 0 1 0 0 1 1 1
    0       1    0 1 0 1 0 0 0 1 0 0 0 0 0 1 0 0 0 1 1 1 1 1 1 0 1 1 0 0 0 0 0 1 0 0 1 1 1 1 1 0 1 1 1 0 1 1 0 1 0 0 1
    1       1    1 1 0 1 1 0 0 1 1 0 0 1 0 1 0 1 0 0 0 1 1 0 0 1 1
   52       2    0 1 0 0 1 0 0 1 0 0 1 0 0 1 1 1 1 1 0 1 0 0 0 0 1 0 1 1 1 1 1 0 0 0 0 1 1 1 1 0 1 1 1 0 0 1 0 0 1 1 1
    0       1    0 1 0 1 0 0 0 1 1 0 0 1 0 1 0 0 1 1 1 1 1 1 0 1 1 1 0 0 0 0 0 1 0 0 1 1 1 1 1 1 0 1 1 0 1 1 0 1 0 0 1
    1       1    1 1 0 1 1 0 0 1 1 0 1 1 1 1 1 0 0 0 0 1 1 0 0 1 1
   53       2    0 1 0 0 1 0 0 1 0 0 1 0 0 1 1 1 0 0 0 1 0 1 0 0 1 0 1 0 1 1 1 0 0 0 0 1 1 1 1 0 1 1 1 0 0 1 0 0 1 1 1
    0       1    0 1 0 1 0 0 0 1 0 0 0 0 0 1 0 0 0 1 1 1 1 1 1 0 1 1 0 0 0 0 0 1 0 0 1 1 1 1 1 0 1 1 1 0 1 1 0 1 0 0 1
    1       1    1 1 0 1 1 0 0 1 1 0 0 1 0 1 0 1 0 0 0 1 1 0 0 1 1
   54       2    0 1 0 0 1 0 0 1 0 0 1 0 0 1 1 1 0 1 0 1 0 0 0 0 1 0 0 0 0 1 0 1 1 1 0 1 1 1 1 0 1 0 1 1 0 0 0 0 1 1 1
    0       1    0 0 0 0 0 0 0 1 1 0 1 1 0 1 0 0 0 1 1 1 1 1 0 1 1 1 0 0 0 0 0 1 1 0 1 1 1 0 1 1 0 1 1 0 1 1 0 1 0 0 1
    1       1    1 1 1 1 1 0 0 0 1 0 0 1 0 1 1 1 0 0 0 1 1 0 0 1 1
   8800000.00000000        1618033.00000000       0.000000000000000E+000
  1.136363636363636E-007   2986551.00000000        6524285.00000000     
           1          48          24
   8171874.00000000        2658060.00000000        7123584.00000000     
   5321523.00000000        5662400.00000000        587337.000000000     
   7702153.00000000        3562413.00000000        4060862.00000000     
   3132452.00000000        3061154.00000000        6204568.00000000     
   1413678.00000000        756518.000000000        2657566.00000000     
   8244042.00000000        6857947.00000000        7516961.00000000     
   3547515.00000000        657960.000000000        7897863.00000000     
   4423104.00000000        3120126.00000000        8046189.00000000     
   1774231.00000000        1202421.00000000        2886208.00000000     
   5115469.00000000        3492350.00000000        5624552.00000000     
   3544295.00000000        755421.000000000        4744285.00000000     
   4659066.00000000        4935037.00000000        5119713.00000000     
   7704383.00000000        3943307.00000000        3428071.00000000     
   6889535.00000000        4298130.00000000        3418248.00000000     
   5300272.00000000        4470691.00000000        2959068.00000000     
   7272241.00000000        1960465.00000000        2986551.00000000     
   5102400.00000000        7747765.00000000        5213178.00000000     
   7329932.00000000        1076822.00000000        2716050.00000000     
   1929485.00000000     
   8800000.00000000        1618033.00000000       0.000000000000000E+000
  1.136363636363636E-007   2649595.00000000        1667309.00000000     
           1          48          24
   3176514.00000000        5789624.00000000        3462518.00000000     
   6211899.00000000        3722814.00000000        1001059.00000000     
   2171633.00000000        6579139.00000000        8188220.00000000     
   4480292.00000000        3746758.00000000        1503050.00000000     
   4233966.00000000        2066112.00000000        1802038.00000000     
   3465108.00000000        7997499.00000000        1932643.00000000     
   6238531.00000000        6626018.00000000        7690765.00000000     
   7098640.00000000        906108.000000000        5669591.00000000     
   5538493.00000000        3628777.00000000        7344036.00000000     
   7041205.00000000        2863400.00000000        8247798.00000000     
   2651109.00000000        4782371.00000000        7402847.00000000     
   346882.000000000        6698503.00000000        318305.000000000     
   5460285.00000000        8282939.00000000        3528845.00000000     
   4796793.00000000        6407696.00000000        8783984.00000000     
   7264946.00000000        96549.0000000000        6748368.00000000     
   6618259.00000000        5119679.00000000        2649595.00000000     
   7329736.00000000        7343331.00000000        994338.000000000     
   79478.0000000000        2445578.00000000        7585374.00000000     
   6851393.00000000     
   8800000.00000000        1618033.00000000       0.000000000000000E+000
  1.136363636363636E-007   2710807.00000000        2512077.00000000     
           1          54          30
   1697366.00000000        4336495.00000000        5029654.00000000     
   4315910.00000000        6053684.00000000        7614604.00000000     
   7876774.00000000        8378990.00000000        4583355.00000000     
   5580277.00000000        6331697.00000000        2604462.00000000     
   70189.0000000000        6883776.00000000        367755.000000000     
   1501929.00000000        7573481.00000000        7176871.00000000     
   8557669.00000000        50241.0000000000        5162784.00000000     
   6715502.00000000        567678.000000000        3899276.00000000     
   1752668.00000000        299403.000000000        1988533.00000000     
   7112280.00000000        7234951.00000000        4511788.00000000     
   2889727.00000000        8765583.00000000        4801329.00000000     
   4023749.00000000        4591787.00000000        2206451.00000000     
   8019964.00000000        5181855.00000000        789369.000000000     
   6118449.00000000        6764780.00000000        3630139.00000000     
   4053896.00000000        6097509.00000000        5766504.00000000     
   315863.000000000        5382026.00000000        2065551.00000000     
   2107678.00000000        6026980.00000000        8004325.00000000     
   7994246.00000000        1066427.00000000        2710807.00000000     
   8652146.00000000     
