          65          54   1.00000000000000     
    1       2    0 1 0 0 1 0 0 1 0 0 1 0 0 1 1 1 0 1 0 1 0 0 1 0 1 0 1 0 0 1 1 1 0 1 0 0 1 1 1 0 1 0 1 0 0 0 0 0 1 1 1
    0       1    0 1 0 1 0 0 1 1 0 1 1 1 0 1 0 0 0 1 1 1 1 1 0 0 1 1 0 0 0 0 0 1 0 0 1 0 1 0 1 0 0 1 1 0 1 1 0 1 0 1 0
    1       1    1 1 1 1 1 0 0 0 1 0 0 1 0 1 1 1 0 0 0 1 1 0 0 1 1
    2       2    0 1 0 0 1 0 0 1 0 0 1 0 0 1 1 1 0 1 0 1 0 1 1 0 1 0 1 0 1 1 1 1 0 1 0 0 1 1 1 0 1 0 1 0 0 0 0 0 1 1 1
    0       1    0 1 0 1 0 0 1 1 0 1 1 1 0 1 0 0 0 1 1 1 1 1 0 0 1 1 0 0 0 0 0 1 1 0 1 1 1 0 1 1 0 1 1 0 1 1 0 1 0 1 0
    1       1    1 1 1 1 1 0 0 0 1 0 0 1 0 1 1 1 0 0 0 1 1 0 0 1 1
    3       2    0 1 0 0 1 0 0 1 0 0 1 0 0 1 1 1 1 1 0 1 0 1 0 0 0 0 0 0 1 1 1 1 1 1 0 1 1 1 1 0 1 0 1 0 0 1 0 0 1 1 1
    0       1    0 1 0 0 0 0 0 1 0 0 1 1 0 1 0 0 0 1 1 1 1 1 0 1 1 1 0 0 0 0 0 1 0 0 1 1 1 0 1 1 0 1 1 0 1 1 0 1 0 0 1
    1       1    1 1 1 1 1 0 0 0 1 0 0 1 0 1 1 1 0 0 0 1 1 0 0 1 1
    4       2    0 1 0 0 1 0 0 1 0 0 1 0 0 1 1 1 1 1 0 1 0 1 0 0 0 0 0 0 1 1 1 1 1 1 0 1 1 1 1 0 1 0 1 0 0 1 0 0 1 1 1
    0       1    0 1 0 0 0 0 0 1 0 0 1 1 0 1 0 0 0 0 1 1 1 1 0 1 1 1 0 0 0 0 0 1 0 0 1 1 1 0 1 1 0 1 1 0 1 1 0 1 0 0 1
    1       1    1 1 1 1 1 0 0 0 1 0 0 0 0 1 1 1 0 1 0 1 1 0 0 1 1
    5       2    0 1 0 0 1 0 0 1 0 0 1 0 0 1 1 1 1 1 0 1 0 1 0 0 1 0 0 0 1 1 1 1 1 1 0 1 1 1 1 0 1 0 1 0 0 1 0 0 1 1 1
    0       1    0 1 0 0 0 0 0 1 0 0 1 1 0 1 0 0 0 1 1 1 1 1 0 1 1 1 0 0 0 0 0 1 0 0 1 1 1 0 1 1 0 1 1 0 1 1 0 1 0 0 1
    1       1    1 1 1 1 1 0 0 0 1 1 0 0 0 1 1 1 0 1 0 1 1 0 0 1 1
    6       2    0 1 0 0 1 0 0 1 0 0 1 0 0 0 1 1 1 1 0 1 0 1 0 0 0 0 0 0 1 1 1 1 1 1 0 1 1 1 1 0 1 0 1 0 0 1 0 0 1 1 1
    0       1    0 1 0 0 0 0 0 1 0 0 1 1 0 1 0 0 0 1 1 1 1 1 0 1 1 1 0 0 0 0 0 1 0 0 1 1 1 0 1 1 0 1 1 0 1 1 0 1 0 0 1
    1       1    1 1 1 1 1 0 0 0 1 0 0 1 0 1 1 1 0 0 0 1 1 0 0 1 1
    7       2    0 1 0 0 1 0 0 1 0 0 1 0 1 1 0 1 0 0 0 1 0 1 0 0 1 0 0 0 0 1 0 1 1 1 0 0 1 1 1 0 1 0 0 1 0 1 0 0 1 1 1
    0       1    1 0 0 1 0 1 0 1 1 0 1 1 0 1 0 1 0 1 1 1 1 1 0 1 1 1 0 0 0 0 0 1 1 0 1 1 1 0 1 1 0 1 1 0 1 1 0 1 0 1 1
    1       1    1 1 1 1 1 0 0 1 1 0 0 1 0 1 1 0 0 1 0 1 1 0 0 1 1
    8       2    0 1 0 0 1 0 0 1 0 0 1 0 1 1 0 1 0 0 0 1 0 1 0 0 1 0 0 0 0 1 0 1 1 1 0 0 1 1 1 0 1 0 0 1 0 1 0 0 1 1 1
    0       1    1 0 0 1 0 1 0 1 1 0 1 1 0 1 0 1 0 1 1 1 1 1 0 1 1 1 0 0 0 0 0 1 1 0 1 1 1 0 1 1 0 1 1 0 1 1 0 1 0 1 1
    1       1    1 1 1 1 1 0 0 1 1 0 0 1 0 1 1 0 0 1 0 1 1 0 0 1 1
    9       2    0 1 0 0 1 0 0 1 0 0 1 0 1 1 0 1 0 0 0 1 0 1 0 0 1 0 0 0 0 1 0 1 1 1 0 0 1 1 1 0 1 0 0 1 0 1 0 0 1 1 1
    0       1    1 0 0 1 0 1 0 1 1 0 1 1 0 1 0 1 0 1 1 1 1 1 0 1 1 1 0 0 0 0 0 1 1 0 1 1 1 0 1 1 0 1 1 0 1 1 0 1 0 1 1
    1       1    1 1 1 1 1 0 0 1 1 0 0 1 0 1 1 0 0 1 0 1 1 0 0 1 1
   10       2    0 1 0 0 1 0 0 1 0 0 1 0 0 1 0 1 1 0 0 1 0 1 0 0 1 0 0 1 0 1 1 1 1 1 0 0 1 1 1 0 1 0 1 0 0 1 0 0 1 1 1
    0       1    0 0 0 1 0 0 0 1 1 0 1 1 0 1 0 0 0 1 1 1 1 1 0 1 1 1 0 0 0 0 0 1 0 0 1 1 1 0 1 1 0 1 1 0 1 1 0 1 0 1 1
    1       1    1 1 1 1 1 0 0 1 1 0 0 1 0 0 1 0 0 1 0 1 1 0 0 1 1
   11       2    0 1 0 0 1 0 0 1 0 0 1 0 0 1 0 1 0 0 0 1 0 1 0 0 1 0 0 0 1 1 1 1 1 1 0 0 1 1 1 0 1 0 1 0 0 1 0 0 1 1 1
    0       1    0 0 0 1 0 0 0 1 1 0 1 1 0 1 0 0 0 1 1 1 1 1 0 1 1 1 0 0 0 0 0 1 1 0 1 1 1 0 1 1 0 1 1 0 1 1 0 1 0 1 1
    1       1    1 1 1 1 1 0 0 1 1 0 0 1 0 1 1 1 0 1 0 1 1 0 0 1 1
   12       2    0 1 0 0 1 0 0 1 0 0 1 0 1 0 1 1 0 0 0 0 0 1 0 0 1 0 1 1 1 1 1 1 0 1 0 1 1 1 1 0 1 0 1 0 0 1 0 0 1 1 1
    0       1    0 0 0 1 0 0 0 1 0 0 1 0 0 1 0 0 0 1 1 1 1 1 1 1 1 1 0 0 0 0 0 1 1 0 1 1 1 0 1 1 0 1 1 0 1 1 0 1 0 1 1
    1       1    1 1 1 1 1 0 0 1 1 0 0 1 0 0 1 0 0 1 0 1 1 0 0 1 1
   13       2    0 1 0 0 1 0 0 1 0 0 1 0 1 1 0 1 0 1 0 0 0 1 0 1 1 0 1 0 0 1 1 1 1 1 0 1 1 1 1 0 1 0 0 1 0 0 0 0 1 1 1
    0       1    1 1 0 1 0 1 0 1 1 0 1 1 0 1 0 1 0 1 1 1 1 1 0 1 1 1 0 0 0 0 0 1 1 1 1 1 1 0 1 1 0 1 1 0 1 1 0 1 0 0 1
    1       1    1 1 1 1 1 0 0 1 1 0 0 1 0 1 1 0 0 1 0 1 1 0 0 1 1
   14       2    0 1 0 0 1 0 0 1 0 0 1 0 1 1 0 1 1 0 0 1 0 1 0 0 1 0 1 0 1 1 1 1 1 1 0 0 1 1 1 0 1 0 0 1 0 0 0 0 1 1 1
    0       1    1 1 0 1 0 0 0 1 1 0 1 1 0 1 1 0 0 1 1 1 1 1 0 1 1 1 0 0 0 0 0 0 1 0 1 1 1 0 0 1 0 1 1 0 1 1 0 1 0 0 1
    1       1    1 1 1 1 1 0 0 1 1 0 0 1 0 1 1 1 0 1 0 1 1 0 0 1 1
   15       2    0 1 0 0 1 0 0 1 0 0 1 0 1 1 1 1 0 1 0 0 0 1 0 1 1 0 1 0 0 1 0 0 1 1 0 1 1 1 1 0 1 0 0 1 0 0 0 0 1 1 1
    0       1    1 1 0 1 0 1 0 1 1 0 1 1 0 1 0 1 0 1 1 1 1 1 0 1 1 1 0 0 0 0 0 1 0 1 1 1 1 1 1 1 0 1 1 0 1 1 0 1 0 0 1
    1       1    1 1 1 1 1 0 0 1 1 0 0 1 0 1 1 0 0 1 0 1 1 0 0 1 1
   16       2    0 1 0 0 1 0 0 1 0 0 1 0 1 1 1 1 1 1 0 0 0 1 0 1 1 0 1 0 1 0 1 1 1 1 0 0 1 1 1 0 1 0 0 1 0 0 0 0 1 1 1
    0       1    1 1 0 1 0 0 0 1 1 0 1 1 0 1 0 1 0 1 1 1 1 1 0 1 1 1 0 0 0 0 0 1 0 1 1 1 1 0 1 1 0 1 1 0 1 1 0 1 0 0 1
    1       1    1 1 1 1 1 0 0 1 1 1 0 1 0 0 1 0 0 1 0 1 1 0 0 1 1
   17       2    0 1 0 0 1 0 0 1 0 0 1 0 0 1 1 1 1 1 0 1 0 1 1 0 1 0 1 0 1 1 1 1 1 1 0 0 1 1 1 0 1 0 1 0 0 0 0 0 1 1 1
    0       1    0 1 0 1 0 0 0 1 0 0 1 1 0 1 0 0 0 1 1 1 1 1 0 0 1 1 0 0 0 0 0 1 1 0 1 1 1 0 1 1 0 1 1 0 1 1 0 1 0 0 1
    1       1    1 1 1 1 1 0 0 1 1 1 0 1 0 1 1 1 0 0 0 1 1 0 0 1 1
   18       2    0 1 0 0 1 0 0 1 0 0 1 0 0 1 1 1 1 1 0 1 0 0 0 0 1 0 1 0 1 1 1 0 1 1 0 1 1 1 1 0 1 0 1 0 0 0 0 0 1 1 1
    0       1    0 1 0 1 0 0 0 1 1 0 1 1 0 1 0 0 1 1 1 1 1 1 0 1 1 1 0 0 0 0 0 1 0 0 1 1 1 1 1 1 0 1 1 0 1 1 0 1 0 0 1
    1       1    1 1 1 1 1 0 0 1 1 0 0 1 0 1 1 1 0 0 0 1 1 0 0 1 1
   19       2    0 1 0 0 1 0 0 1 0 0 1 0 0 1 1 1 0 1 0 0 0 1 0 1 1 0 1 0 1 1 1 0 1 1 0 1 1 1 1 0 1 0 1 0 0 0 0 0 1 1 1
    0       1    0 1 0 1 0 0 0 1 1 0 1 1 0 1 0 0 0 1 1 1 1 1 0 1 1 1 0 0 0 0 0 1 0 1 1 1 1 1 1 1 0 1 1 0 1 1 0 1 0 0 1
    1       1    1 1 1 1 1 0 0 1 1 0 0 1 0 1 1 1 0 1 0 1 1 0 0 1 1
   20       2    0 1 0 0 1 0 0 1 0 0 1 0 0 1 1 1 0 1 1 1 0 1 1 0 1 0 1 0 1 1 1 0 1 1 0 0 1 1 1 0 1 0 1 0 0 0 0 0 1 1 1
    0       1    0 1 0 1 0 0 0 1 1 0 1 1 0 0 0 0 0 1 1 1 1 1 0 1 1 1 0 0 0 0 0 1 0 1 1 1 1 1 1 1 0 1 1 0 1 1 0 1 0 0 1
    1       1    1 1 1 1 1 0 0 1 1 0 0 1 0 1 1 1 0 1 0 1 1 0 0 1 1
   21       2    0 1 0 0 1 0 0 1 0 0 1 0 0 1 1 1 1 1 0 0 0 1 0 0 1 0 1 0 1 1 1 1 1 1 0 0 1 1 1 0 1 0 1 0 0 0 0 0 1 1 1
    0       1    0 1 0 1 0 0 0 1 0 0 1 1 0 1 0 0 0 1 1 1 1 1 0 1 1 1 0 0 0 0 0 0 1 0 1 0 1 0 1 1 0 1 1 0 1 1 0 1 0 0 1
    1       1    1 1 1 1 1 0 0 1 1 0 0 1 0 1 1 1 0 1 0 1 1 0 0 1 1
   22       2    0 1 0 0 1 0 0 1 0 0 1 0 0 1 1 1 0 1 0 1 0 0 0 0 1 0 1 0 1 1 1 1 1 1 0 0 1 1 1 0 1 0 1 0 0 0 0 0 1 1 1
    0       1    0 1 0 1 0 0 0 1 0 1 1 1 0 1 0 0 1 1 1 1 1 1 0 1 1 1 0 0 0 0 0 1 0 0 1 0 1 1 1 0 0 1 1 0 1 1 0 1 0 0 1
    1       1    1 1 1 1 1 0 0 1 1 0 0 1 0 1 1 0 1 0 0 1 1 0 0 1 1
   23       2    0 1 0 0 1 0 0 1 0 0 1 0 0 1 1 1 1 1 0 0 0 1 0 0 1 0 1 0 1 1 1 1 1 1 0 1 1 1 1 0 1 0 1 0 0 0 0 0 1 1 1
    0       1    0 1 0 1 0 0 0 1 1 0 1 1 0 1 0 0 0 1 1 1 1 1 0 0 1 1 0 0 0 0 0 1 0 1 1 1 1 1 1 1 0 1 1 0 1 1 0 1 0 0 1
    1       1    1 1 1 1 1 0 0 1 1 0 0 0 0 1 1 1 0 1 0 1 1 0 0 1 1
   24       2    0 1 0 0 1 0 0 1 0 0 1 0 0 1 1 1 1 1 0 0 0 1 0 0 1 0 1 0 1 1 1 1 1 1 0 1 1 1 1 0 1 0 1 0 0 0 0 0 1 1 1
    0       1    0 1 0 1 1 0 0 1 0 0 1 1 0 1 0 0 0 1 1 1 1 1 1 0 1 1 0 0 0 0 0 1 0 1 1 1 1 1 1 0 0 1 1 0 1 1 0 1 0 0 1
    1       1    1 1 1 1 1 0 0 1 1 0 0 1 0 1 1 1 0 1 0 1 1 0 0 1 1
   25       2    0 1 0 0 1 0 0 1 0 0 1 0 0 1 1 1 0 1 0 0 0 1 0 1 1 0 1 0 1 1 1 1 1 1 1 0 0 1 1 0 1 0 1 0 0 0 0 0 1 1 1
    0       1    0 1 0 1 0 0 0 1 1 0 1 1 0 1 0 1 0 1 1 1 1 1 0 1 1 1 0 0 0 0 0 1 0 1 1 1 1 1 1 1 0 1 1 0 1 1 0 1 0 0 1
    1       1    1 1 1 1 1 0 0 1 1 1 0 1 0 1 1 1 0 1 0 1 1 0 0 1 1
   26       2    0 1 0 0 1 0 0 1 0 0 1 0 0 1 1 1 1 1 0 0 0 0 0 0 1 0 1 0 1 1 1 1 1 1 0 0 1 1 1 0 1 0 1 0 0 0 0 0 1 1 1
    0       1    0 1 0 1 0 0 0 1 0 0 1 1 0 1 0 0 0 1 1 1 1 1 0 1 1 1 0 0 0 0 0 1 0 0 1 0 1 1 1 1 0 1 1 0 1 1 0 1 0 0 1
    1       1    1 1 1 1 1 0 0 1 1 0 0 0 0 1 1 1 0 1 0 1 1 0 0 1 1
   27       2    0 1 0 0 1 0 0 1 0 0 1 0 0 1 1 1 0 1 0 1 0 0 0 0 1 0 1 0 0 1 1 1 0 1 0 0 1 1 1 0 1 0 1 0 0 0 0 0 1 1 1
    0       1    0 1 0 1 0 0 0 1 0 0 1 1 0 1 0 0 0 1 1 1 1 1 1 1 1 1 0 0 0 0 0 1 0 0 1 0 1 0 1 0 0 1 1 0 1 1 0 1 0 0 1
    1       1    1 1 1 1 1 0 0 1 1 0 0 1 0 1 1 1 0 0 0 1 1 0 0 1 1
   28       2    0 1 0 0 1 0 0 1 0 0 1 0 0 1 1 1 0 1 1 0 0 1 0 1 1 0 1 0 1 1 1 1 1 1 0 1 0 1 1 0 1 0 1 0 0 0 0 0 1 1 1
    0       1    0 1 0 1 0 0 0 1 1 0 1 1 0 1 0 1 0 1 1 0 1 0 1 1 1 1 0 0 0 0 0 1 0 1 1 0 1 1 1 1 0 1 1 0 1 1 0 1 0 0 1
    1       1    1 1 1 1 1 0 0 1 1 1 0 1 0 1 1 1 0 1 0 1 1 0 0 1 1
   29       2    0 1 0 0 1 0 0 1 0 0 1 0 0 1 1 1 1 1 0 0 0 1 0 0 1 0 1 0 1 0 1 1 1 1 0 0 1 1 1 0 1 0 1 0 0 0 0 0 1 1 1
    0       1    0 1 0 1 0 0 0 1 0 0 1 1 0 1 0 0 0 1 1 1 1 1 0 0 1 1 0 0 0 0 0 0 1 0 1 1 1 1 1 1 0 1 1 0 1 1 0 1 0 0 1
    1       1    1 1 1 1 1 0 0 1 1 0 0 0 0 1 0 1 0 1 0 1 1 0 0 1 1
   30       2    0 1 0 0 1 0 0 1 0 0 1 0 0 1 1 1 0 1 0 1 0 1 0 0 1 0 1 0 1 1 1 1 1 1 0 1 1 1 1 0 1 0 1 0 0 0 1 0 1 1 1
    0       1    0 1 0 0 0 0 0 1 1 0 0 0 0 1 0 0 1 1 1 1 1 1 1 0 1 1 0 0 0 0 0 1 1 0 1 1 1 1 1 1 0 1 1 0 1 1 0 1 0 0 1
    1       1    1 1 1 1 1 0 0 1 1 0 0 1 0 1 0 1 0 1 0 1 1 0 0 1 1
   31       2    0 1 0 0 1 0 0 1 0 0 1 0 0 1 0 1 1 0 0 1 0 1 0 0 1 0 0 0 0 1 1 1 1 1 0 0 1 1 1 0 1 0 1 0 0 1 0 0 1 1 1
    0       1    0 1 0 0 0 0 0 1 1 0 0 1 0 1 0 0 1 1 1 1 1 1 0 0 1 1 0 0 0 0 0 1 0 0 1 1 1 0 1 1 0 1 1 0 1 1 0 1 0 0 0
    1       1    1 1 1 1 1 0 0 1 1 0 0 1 1 1 0 1 0 1 0 1 1 0 0 1 1
   32       2    0 1 0 0 1 0 0 1 0 0 1 0 0 1 1 1 0 1 0 1 0 0 1 0 1 0 1 0 1 1 1 1 0 1 1 1 0 1 1 0 1 0 1 0 0 1 0 0 1 1 1
    0       1    0 1 0 0 0 0 1 1 1 1 0 0 0 1 0 0 0 1 1 1 1 1 0 0 1 1 0 0 0 0 0 1 1 0 1 1 1 0 1 1 0 1 1 0 1 1 0 1 0 1 0
    1       1    1 1 1 1 1 0 0 0 1 0 0 1 0 1 1 1 0 1 0 1 1 0 0 1 1
   33       2    0 1 0 0 1 0 0 1 0 0 1 0 0 1 1 1 0 0 0 1 0 0 1 0 1 1 0 1 0 1 1 1 1 1 0 0 1 1 1 0 1 0 1 0 0 0 0 0 1 1 1
    0       1    0 1 0 1 0 0 0 0 0 0 1 1 0 1 0 0 0 1 1 1 1 1 0 1 1 1 0 0 0 0 0 1 0 0 1 0 1 0 1 1 0 1 1 0 1 1 0 1 0 1 0
    1       1    1 1 1 1 1 0 0 1 1 0 1 1 0 1 1 0 0 0 0 1 1 0 0 1 1
   34       2    0 1 0 0 1 0 0 1 0 0 1 0 0 1 1 1 1 0 0 0 0 0 0 0 1 1 0 1 0 1 1 1 1 1 0 0 1 1 1 0 1 0 1 0 0 0 0 0 1 1 1
    0       1    0 1 0 1 0 0 0 1 0 0 1 1 0 1 0 0 0 1 1 1 1 1 0 0 1 1 0 0 0 0 0 0 0 0 1 1 1 1 1 1 0 1 1 0 1 1 0 1 0 1 0
    1       1    1 1 1 1 1 0 0 1 1 0 0 0 0 1 0 1 0 1 0 1 1 0 0 1 1
   35       2    0 1 0 0 1 0 0 1 0 0 1 0 0 1 1 1 0 1 0 0 0 1 0 1 1 0 1 0 1 1 1 1 1 1 0 1 1 1 1 0 1 0 1 0 0 1 0 0 1 1 1
    0       1    0 1 0 0 0 0 0 1 1 0 1 1 0 1 0 0 0 1 1 1 1 1 0 1 1 1 0 0 0 0 0 1 0 0 1 1 1 0 1 1 0 1 1 0 1 1 0 1 0 0 1
    1       1    1 1 1 1 1 0 0 1 1 0 0 1 0 1 1 1 0 1 0 1 1 0 0 1 1
   36       2    0 1 0 0 1 0 0 1 0 0 1 0 0 1 1 1 1 1 0 0 0 1 0 0 1 0 1 0 1 1 1 1 1 1 0 0 1 1 1 0 1 0 1 0 0 1 0 0 1 1 1
    0       1    0 1 0 0 0 0 0 1 1 0 1 1 0 1 0 1 0 1 1 1 1 1 0 1 1 1 0 0 0 0 0 1 0 0 1 0 1 0 1 1 0 1 1 0 1 1 0 1 0 0 1
    1       1    1 1 1 1 1 0 0 1 1 1 0 1 0 1 1 1 0 1 0 1 1 0 0 1 1
   37       2    0 1 0 0 1 0 0 1 0 0 1 0 0 1 1 1 1 1 0 1 0 0 0 0 1 0 1 0 1 1 1 1 1 1 0 1 1 1 1 0 1 0 1 0 0 1 0 0 1 1 1
    0       1    0 1 0 0 0 0 0 1 0 0 1 1 0 1 0 0 0 1 1 1 1 1 0 1 1 1 0 0 0 0 0 1 0 0 1 1 1 1 1 1 0 1 1 0 1 1 0 1 0 0 1
    1       1    1 1 1 1 1 0 0 1 1 0 0 1 0 0 1 1 0 0 0 1 1 0 0 1 1
   38       2    0 1 0 0 1 0 0 1 0 0 1 0 0 1 1 1 0 1 0 0 0 1 0 0 1 0 1 0 1 1 1 1 0 1 0 1 1 1 1 0 1 0 1 0 0 1 0 0 1 1 1
    0       1    0 1 0 0 0 0 0 1 1 0 0 0 0 1 0 0 0 1 1 1 1 1 1 0 1 1 0 0 0 0 0 1 1 0 1 1 1 0 1 1 0 1 1 0 1 1 0 1 0 0 1
    1       1    1 1 1 1 1 0 0 1 1 0 0 1 0 1 1 1 0 1 0 1 1 0 0 1 1
   39       2    0 1 0 0 1 0 0 1 0 0 1 0 0 1 1 1 0 0 0 1 0 1 0 0 1 0 1 0 1 1 1 0 0 0 0 0 1 1 1 0 1 0 1 0 0 1 0 0 1 1 1
    0       1    0 1 0 0 0 0 0 1 1 0 1 0 0 1 0 0 0 1 1 1 1 1 1 0 1 1 0 0 0 0 0 1 1 0 1 0 1 0 1 0 0 1 1 0 1 1 0 1 0 0 1
    1       1    1 1 1 1 1 0 0 1 1 0 1 1 0 1 1 1 0 1 0 1 1 0 0 1 1
   40       2    0 1 0 0 1 0 0 1 0 0 1 0 0 1 1 1 0 0 0 1 0 1 0 0 1 0 1 0 1 1 0 1 0 1 0 1 1 1 1 0 1 0 1 0 0 1 0 0 1 1 1
    0       1    0 1 0 0 0 0 0 1 0 0 0 0 0 1 0 0 0 1 1 1 1 1 1 0 1 1 0 0 0 0 0 1 1 0 1 1 1 0 1 1 0 1 1 0 1 1 0 1 0 0 1
    1       1    1 1 1 1 1 0 0 1 1 0 0 1 0 1 0 1 0 0 0 1 1 0 0 1 1
   41       2    0 1 0 0 1 0 0 1 0 0 1 0 0 1 1 1 1 1 0 1 0 0 0 0 1 0 1 0 1 1 1 0 1 1 0 1 1 1 1 0 1 0 1 0 0 1 0 0 1 1 1
    0       1    0 1 0 0 0 1 0 1 0 0 1 1 0 1 0 0 0 1 1 1 1 1 0 1 1 1 0 0 0 0 0 1 0 0 1 1 1 1 1 1 0 1 1 0 1 1 0 1 0 0 1
    1       1    1 1 1 1 1 0 0 1 1 0 0 1 0 1 1 1 0 0 0 1 1 0 0 1 1
   42       2    0 1 0 0 1 0 0 1 0 0 1 0 0 1 1 1 1 1 0 0 0 1 0 0 1 0 1 0 1 1 1 0 1 1 0 1 1 1 1 0 1 0 1 0 0 1 0 0 1 1 1
    0       1    0 1 0 0 0 0 0 1 1 0 1 1 0 1 0 0 0 1 1 1 1 1 0 1 1 1 0 0 0 0 0 1 0 0 1 0 1 0 1 1 0 1 1 0 1 1 0 1 0 0 1
    1       1    1 1 1 1 1 0 0 1 1 0 0 1 0 1 1 1 0 1 0 1 1 0 0 1 1
   43       2    0 1 0 0 1 0 0 1 0 0 1 0 0 1 1 1 0 1 0 1 0 0 0 0 1 0 1 0 1 1 1 1 0 1 0 1 0 1 1 0 1 0 1 0 0 1 0 0 1 1 1
    0       1    0 1 0 0 0 0 0 1 1 0 0 0 0 1 0 0 0 1 1 1 1 1 1 1 1 1 0 0 0 0 0 1 1 0 1 1 1 0 1 1 0 1 1 0 1 1 0 1 0 0 1
    1       1    1 1 1 1 1 0 0 1 1 0 0 1 0 1 1 1 0 1 0 1 1 0 0 1 1
   44       2    0 1 0 0 1 0 0 1 0 0 1 0 0 1 1 1 0 1 0 1 0 1 0 0 1 0 1 0 1 1 1 1 1 1 0 1 1 1 1 0 1 0 1 0 0 0 1 0 1 1 1
    0       1    0 1 0 1 0 0 0 1 1 0 1 1 0 1 0 0 1 1 1 1 1 1 0 0 1 1 0 0 0 0 0 1 0 1 1 1 1 1 1 0 0 1 1 0 1 1 0 1 0 0 1
    1       1    1 1 1 1 1 0 0 1 1 0 0 1 0 1 1 1 1 0 0 1 1 0 0 1 1
   45       2    0 1 0 0 1 0 0 1 0 0 1 0 0 1 1 1 0 0 0 0 0 1 0 0 1 0 1 0 1 1 1 1 0 1 0 1 1 1 1 0 1 0 1 0 0 1 0 0 1 1 1
    0       1    0 1 0 0 0 0 0 1 0 0 0 0 0 1 0 0 0 1 1 1 1 1 1 0 1 1 0 0 0 0 0 1 1 0 1 1 1 0 1 1 0 1 1 0 1 1 0 1 0 0 1
    1       1    1 1 1 1 1 0 0 1 1 0 0 1 1 1 0 1 0 1 0 1 1 0 0 1 1
   46       2    0 1 0 0 1 0 0 1 0 0 1 0 1 1 1 1 0 1 0 1 0 1 0 0 1 0 1 0 1 1 0 1 0 1 0 1 1 1 1 0 1 0 1 0 0 1 0 0 1 1 1
    0       1    0 1 0 0 0 0 1 1 1 0 0 0 1 1 0 0 0 1 1 1 1 1 1 0 1 1 0 0 0 0 0 1 1 0 1 1 1 0 1 1 0 1 1 0 1 1 0 1 0 0 1
    1       1    1 1 1 1 1 0 0 1 1 0 0 1 0 1 1 1 0 0 0 1 1 0 0 1 1
   47       2    0 1 0 0 1 0 0 1 0 0 1 0 0 1 1 1 0 1 0 1 0 1 0 0 1 0 1 0 1 1 1 1 1 1 0 0 1 1 1 0 1 0 1 0 0 1 0 0 1 1 1
    0       1    0 1 0 0 0 0 0 1 1 0 1 0 0 1 0 0 0 1 1 1 1 1 0 1 1 1 0 0 0 0 0 1 1 0 1 1 1 1 1 1 0 1 1 0 1 1 0 1 0 0 1
    1       1    1 1 1 1 1 0 0 1 1 0 0 1 0 1 1 1 0 1 0 1 1 0 0 1 1
   48       2    0 1 0 0 1 0 0 1 0 0 1 0 0 1 1 1 0 1 0 1 0 0 0 0 1 0 1 0 1 1 0 1 0 1 0 1 1 1 1 0 1 0 1 0 0 1 0 0 1 1 1
    0       1    0 1 0 0 0 0 0 1 0 0 0 0 0 1 0 0 0 1 1 1 1 1 1 0 1 1 0 0 0 0 0 1 1 0 1 1 1 0 1 1 0 1 1 0 1 1 0 1 0 0 1
    1       1    1 1 1 1 1 0 0 1 1 0 0 1 0 1 0 1 0 1 0 1 1 0 0 1 1
   49       2    0 1 0 0 1 0 0 1 0 0 1 0 0 1 1 1 0 1 0 1 0 1 0 0 1 0 1 0 1 1 1 1 1 1 0 0 1 1 1 0 1 0 1 0 0 1 0 0 1 1 1
    0       1    0 1 0 0 0 0 0 1 0 1 1 1 0 1 0 0 1 1 1 1 1 1 0 1 1 1 0 0 0 0 0 1 0 0 1 0 1 1 1 1 0 1 1 0 1 1 0 1 0 0 1
    1       1    1 1 1 1 1 0 0 1 1 1 0 1 0 1 1 1 0 1 0 1 1 0 0 1 1
   50       2    0 1 0 0 1 0 0 1 0 0 1 0 0 1 0 1 0 1 0 0 0 1 0 0 1 0 1 0 0 1 1 1 1 1 0 1 1 1 1 0 1 0 1 0 0 1 0 0 1 1 1
    0       1    0 1 0 0 0 1 0 1 1 0 1 1 0 1 0 1 0 1 1 1 1 1 0 1 1 1 0 0 0 0 0 1 0 0 1 0 1 0 1 1 0 1 1 0 1 1 0 1 0 0 1
    1       1    1 1 1 1 1 0 0 1 1 0 0 1 0 1 1 1 1 0 0 1 1 0 0 1 1
   51       2    0 1 0 0 1 0 0 1 0 0 1 0 0 1 1 1 1 1 0 1 0 1 0 0 1 0 0 0 1 1 1 1 1 1 0 0 1 1 1 0 1 0 1 0 0 1 0 0 1 1 1
    0       1    0 1 0 1 0 0 0 0 0 1 1 1 0 1 0 0 0 1 1 1 1 1 0 1 1 1 0 0 0 0 0 1 0 0 1 1 1 0 1 1 0 1 1 0 1 1 0 1 0 0 1
    1       1    1 1 1 1 1 0 0 0 1 0 1 1 0 1 1 0 0 0 0 1 1 0 0 1 1
   52       2    0 1 0 0 1 0 0 1 0 0 1 0 0 1 1 1 1 1 0 1 0 1 1 0 1 0 1 0 1 1 1 1 0 1 0 0 1 1 1 0 1 0 1 0 0 1 0 0 1 1 1
    0       1    0 1 0 1 0 0 1 0 0 1 1 1 0 1 0 0 0 1 1 1 1 1 0 1 1 1 0 0 0 0 0 1 0 0 1 1 1 0 1 0 0 1 1 0 1 1 0 1 0 0 1
    1       1    1 1 1 1 1 0 0 0 0 0 0 1 0 1 1 1 0 0 0 1 1 0 0 1 1
   53       2    0 1 0 0 1 0 0 1 0 0 1 0 0 1 1 1 0 1 0 1 0 0 0 0 1 0 0 0 0 1 1 1 1 1 0 0 1 1 1 0 1 0 1 1 0 0 0 0 1 1 1
    0       1    0 0 0 0 0 0 0 1 1 0 1 1 0 1 0 0 0 1 1 1 1 0 0 1 1 1 0 0 0 0 0 1 1 0 1 1 1 0 1 0 0 1 1 0 1 1 0 1 0 0 0
    1       1    1 1 1 1 1 0 0 0 1 0 0 1 0 1 1 1 0 0 0 1 1 0 0 1 1
   54       2    0 1 0 0 1 0 0 1 0 0 1 0 0 1 1 1 0 1 0 1 0 0 0 0 1 0 0 0 0 1 1 1 1 1 1 0 1 1 1 0 1 0 1 1 0 0 0 0 1 1 1
    0       1    0 0 0 0 0 0 0 1 1 0 1 1 0 1 0 0 0 1 1 1 1 0 0 1 1 1 0 0 0 0 0 1 1 0 1 1 1 0 1 1 0 1 1 0 1 1 0 1 0 0 0
    1       1    1 1 1 1 1 0 0 0 1 0 0 1 0 1 1 1 0 0 0 1 1 0 0 1 1
   8800000.00000000        1618033.00000000       0.000000000000000E+000
  1.136363636363636E-007   2320132.00000000        6524285.00000000     
           1          42          18
   4966115.00000000        4053381.00000000        6681849.00000000     
   3841596.00000000        7482037.00000000        2510332.00000000     
   8408103.00000000        4221826.00000000        7562833.00000000     
   1039882.00000000        4014758.00000000        61047.0000000000     
   7368916.00000000        163019.000000000        6302873.00000000     
   3175947.00000000        3989924.00000000        2181758.00000000     
   7092331.00000000        8523808.00000000        2502530.00000000     
   7491280.00000000        8141651.00000000        1908191.00000000     
   5644578.00000000        1663364.00000000        6431310.00000000     
   6946077.00000000        7351522.00000000        6276574.00000000     
   8552501.00000000        8549917.00000000        3432966.00000000     
   1701634.00000000        3301068.00000000        6050139.00000000     
   530548.000000000        1436731.00000000        3072357.00000000     
   3973179.00000000        5654495.00000000        2320132.00000000     
   3472832.00000000        6364403.00000000        8321493.00000000     
   5778396.00000000        3054530.00000000        3429421.00000000     
   2742557.00000000        64043.0000000000        4994853.00000000     
   3911410.00000000        287679.000000000        3405759.00000000     
   8266022.00000000     
   8800000.00000000        1618033.00000000       0.000000000000000E+000
  1.136363636363636E-007   2649595.00000000        1667309.00000000     
           1          48          24
   3176514.00000000        5789624.00000000        3462518.00000000     
   6211899.00000000        3722814.00000000        1001059.00000000     
   2171633.00000000        6579139.00000000        8188220.00000000     
   4480292.00000000        3746758.00000000        1503050.00000000     
   4233966.00000000        2066112.00000000        1802038.00000000     
   3465108.00000000        7997499.00000000        1932643.00000000     
   6238531.00000000        6626018.00000000        7690765.00000000     
   7098640.00000000        906108.000000000        5669591.00000000     
   5538493.00000000        3628777.00000000        7344036.00000000     
   7041205.00000000        2863400.00000000        8247798.00000000     
   2651109.00000000        4782371.00000000        7402847.00000000     
   346882.000000000        6698503.00000000        318305.000000000     
   5460285.00000000        8282939.00000000        3528845.00000000     
   4796793.00000000        6407696.00000000        8783984.00000000     
   7264946.00000000        96549.0000000000        6748368.00000000     
   6618259.00000000        5119679.00000000        2649595.00000000     
   7329736.00000000        7343331.00000000        994338.000000000     
   79478.0000000000        2445578.00000000        7585374.00000000     
   6851393.00000000     
   8800000.00000000        1618033.00000000       0.000000000000000E+000
  1.136363636363636E-007   8186778.00000000        2512077.00000000     
           1          36          12
   8375218.00000000        3442478.00000000        2495377.00000000     
   7149554.00000000        6406104.00000000        8077049.00000000     
   10415.0000000000        4605676.00000000        7242872.00000000     
   7783442.00000000        4971563.00000000        1965569.00000000     
   8636475.00000000        2149863.00000000        4836177.00000000     
   7443401.00000000        1558109.00000000        8164060.00000000     
   1228164.00000000        4676361.00000000        6581522.00000000     
   6249273.00000000        2969618.00000000        1662517.00000000     
   7262231.00000000        3567509.00000000        4778184.00000000     
   8382763.00000000        8745216.00000000        8426787.00000000     
   3065559.00000000        4421601.00000000        5122670.00000000     
   7399931.00000000        7833878.00000000        8186778.00000000     
   6163868.00000000        8248827.00000000        1198264.00000000     
   8748025.00000000        1124589.00000000        1183429.00000000     
   1152608.00000000        6455366.00000000        8050562.00000000     
   1679828.00000000        150496.000000000        8599088.00000000     
   1968928.00000000        4020011.00000000        808031.000000000     
   2634404.00000000        7743867.00000000        5594113.00000000     
   307031.000000000     
