          52          54   1.00000000000000     
    1       2    0 0 1 0 0 1 0 1 0 0 1 0 1 0 0 0 1 1 0 0 1 0 1 1 0 0 1 1 1 1 1 1 0 1 1 1 0 0 1 0 0 1 1 1 0 0 1 1 1 1 1
    0       1    0 1 1 1 1 1 1 1 0 0 1 1 1 0 0 0 1 0 1 1 0 0 1 0 0 1 0 0 0 0 0 1 0 0 0 0 0 0 0 0 1 1 1 1 1 1 1 1 1 0 1
    1       0    1 1 0 0 0 1 1 0 1 0 0 1 0 1 1 0 0 0 0 1 1 0 0 1 1
    2       2    0 0 1 0 0 1 0 1 0 0 1 0 1 0 0 0 1 1 0 0 1 0 1 0 1 0 1 0 1 0 1 1 0 1 1 1 0 0 1 0 0 1 1 1 0 0 1 1 1 1 1
    0       1    0 1 1 1 1 1 1 1 1 0 1 1 1 0 0 0 1 0 0 1 0 0 1 0 0 1 0 0 0 0 0 1 0 0 0 0 0 0 0 0 1 1 1 1 1 1 1 1 1 0 1
    1       0    1 1 0 0 0 1 1 0 0 0 0 1 0 1 0 0 0 0 0 1 1 0 0 1 1
    3       2    0 0 1 0 0 1 0 1 0 0 1 0 0 0 0 1 0 1 1 0 0 0 0 1 0 0 0 0 1 1 1 0 1 1 1 1 1 1 1 0 0 0 1 0 0 0 0 1 1 1 1
    0       1    0 1 0 0 0 1 0 1 0 0 1 1 1 0 0 1 0 0 0 1 0 0 1 0 0 1 0 0 0 0 0 1 1 1 0 1 0 0 0 1 1 1 1 1 1 1 1 0 1 1 1
    1       0    1 1 0 0 1 1 1 1 0 0 1 1 0 1 0 0 0 0 0 1 1 0 0 1 1
    4       2    0 0 1 0 1 1 0 1 0 0 1 0 0 0 0 0 1 1 1 0 1 0 0 1 0 0 1 0 1 1 1 1 0 1 1 1 0 1 0 0 0 0 1 0 0 0 0 1 1 1 1
    0       1    0 1 1 0 1 1 0 1 0 0 1 0 1 0 0 0 1 1 1 1 0 0 1 0 0 1 0 0 0 0 0 1 1 1 0 1 0 0 0 0 1 1 1 1 1 1 1 0 1 0 1
    1       0    1 1 0 0 1 1 1 1 1 0 1 1 0 1 0 0 0 0 0 1 1 0 0 1 1
    5       2    0 0 1 0 1 1 0 1 0 0 1 0 0 0 0 0 1 1 1 0 1 0 0 1 0 0 1 0 1 1 1 1 0 1 1 1 0 1 0 0 0 0 1 0 0 0 0 1 1 1 1
    0       1    0 1 1 0 1 1 0 1 0 0 1 0 1 0 0 0 1 1 1 1 0 0 1 0 0 1 0 0 0 0 0 1 1 1 0 1 0 0 0 0 1 1 1 1 1 1 1 0 1 0 1
    1       0    1 1 0 0 1 1 1 1 1 0 0 1 0 1 0 0 0 0 0 1 1 0 0 1 1
    6       2    0 0 1 1 1 0 0 1 0 0 1 0 0 0 0 1 1 1 0 0 1 0 0 1 1 1 0 0 0 1 1 1 1 1 1 1 0 1 0 0 1 1 1 0 0 0 0 1 1 1 1
    0       1    0 1 1 0 0 1 1 1 0 0 1 1 1 0 0 1 1 0 0 1 0 1 0 1 0 1 0 0 0 0 0 0 1 1 0 1 0 1 1 1 1 1 1 1 1 1 1 0 1 0 1
    1       0    1 1 0 0 1 1 1 1 1 0 0 1 0 1 0 1 1 0 0 1 1 0 0 1 1
    7       2    0 0 1 1 1 1 0 1 0 0 1 0 1 0 0 0 0 1 0 0 1 0 0 1 1 1 1 0 0 0 1 1 0 1 1 1 0 1 0 0 1 1 1 0 0 0 0 1 1 1 1
    0       1    0 1 1 0 1 1 0 1 1 0 1 0 1 0 0 1 1 1 0 1 0 0 0 1 0 1 0 0 0 0 0 0 1 1 0 0 0 0 0 0 1 1 1 1 1 1 1 0 1 0 1
    1       0    1 1 0 0 1 1 1 1 1 0 0 1 0 1 1 0 0 0 0 1 1 0 0 1 1
    8       2    0 0 1 0 0 0 0 1 0 0 1 0 1 0 0 1 0 1 1 0 1 0 0 0 0 0 0 0 1 0 1 0 1 1 1 1 1 1 1 0 0 0 1 0 0 0 0 1 1 1 1
    0       1    1 1 0 0 0 1 0 1 0 0 1 1 1 0 0 1 0 0 0 1 1 1 0 1 0 1 0 0 0 0 0 0 0 0 0 1 0 0 1 1 1 1 1 1 1 1 0 1 1 1 1
    1       0    1 1 0 0 1 1 1 1 0 0 0 1 0 1 0 0 1 0 0 1 1 0 0 1 1
    9       2    0 1 1 0 0 0 0 1 0 0 1 0 1 0 0 0 1 1 0 0 1 0 0 1 0 1 0 0 0 0 1 1 1 1 1 1 0 1 1 0 0 0 1 0 0 0 0 1 1 1 1
    0       1    1 1 0 0 0 0 0 0 0 0 1 1 1 0 0 1 0 0 0 1 1 1 0 1 0 1 0 0 0 0 0 0 0 1 0 1 0 1 1 1 1 1 1 1 1 1 0 1 1 1 1
    1       0    1 1 0 0 1 1 1 1 0 0 0 1 0 1 0 0 1 0 0 1 1 0 0 1 1
   10       2    0 0 1 0 0 0 0 1 0 0 1 0 1 0 0 1 0 1 1 0 1 0 0 1 1 0 0 0 1 0 1 0 1 1 1 1 1 1 0 0 1 0 1 0 0 0 0 1 1 1 1
    0       1    1 1 1 0 0 1 1 1 1 0 1 1 1 0 0 0 0 0 0 1 1 1 0 1 0 1 0 0 0 0 0 0 0 0 0 1 0 0 1 1 1 1 1 1 1 1 0 1 1 0 1
    1       0    1 1 0 0 1 1 1 1 0 0 0 1 0 1 0 0 1 0 0 1 1 0 0 1 1
   11       2    0 0 1 1 0 1 0 1 0 0 1 0 1 0 0 1 0 1 0 0 1 0 0 1 1 1 0 0 0 1 1 0 1 1 1 1 0 1 1 0 1 1 1 0 0 0 0 1 1 1 1
    0       1    1 1 1 0 0 1 1 1 1 0 1 1 1 0 0 1 1 0 1 1 1 1 0 1 0 1 0 0 0 0 0 0 0 1 0 1 0 1 1 1 1 1 1 1 1 1 0 1 1 0 1
    1       0    1 1 0 0 1 1 1 1 0 0 0 1 0 1 0 1 1 0 0 1 1 0 0 1 1
   12       2    0 0 1 0 1 0 0 1 0 0 1 0 1 0 0 0 1 1 1 0 1 0 0 0 0 0 1 0 1 0 1 1 0 1 1 1 0 1 0 0 0 0 1 0 0 0 0 1 1 1 1
    0       1    1 1 1 0 1 1 0 1 0 0 1 0 1 0 0 0 1 1 1 1 1 1 0 1 0 1 0 0 0 0 0 0 0 0 0 1 0 0 1 0 1 1 1 1 1 1 0 1 1 0 1
    1       0    1 1 0 0 1 1 1 1 1 0 0 1 0 1 0 0 1 0 0 1 1 0 0 1 1
   13       2    0 0 1 0 0 1 0 1 0 0 1 0 0 0 0 0 0 1 1 0 1 0 0 1 1 1 0 0 0 1 1 0 1 0 1 1 0 0 0 0 0 1 1 0 0 0 0 1 1 1 1
    0       1    1 1 1 1 1 0 1 1 0 0 1 1 1 0 0 0 1 0 1 1 0 0 0 1 0 1 0 0 0 0 0 1 0 1 0 1 0 0 1 1 0 1 1 1 1 1 0 1 1 0 1
    1       0    1 1 0 0 1 1 1 0 0 0 0 1 0 1 0 1 0 0 0 1 1 0 0 1 1
   14       2    0 0 1 1 0 1 0 1 0 0 1 0 1 0 0 1 0 1 0 0 1 0 0 1 1 1 0 0 0 0 1 0 1 1 1 1 0 1 0 0 1 1 1 0 0 0 0 1 1 1 1
    0       1    1 1 1 1 0 1 1 1 1 0 1 1 1 0 0 1 0 0 0 1 1 1 0 1 0 1 0 0 0 0 0 0 0 1 0 1 0 0 1 1 1 1 1 1 1 1 0 1 1 0 1
    1       0    1 1 0 0 1 1 1 0 0 0 0 1 0 1 0 1 1 0 0 1 1 0 0 1 1
   15       2    0 0 1 1 0 1 0 1 0 0 1 0 0 0 0 0 0 1 1 0 1 0 0 1 1 1 0 0 0 0 1 0 1 0 1 1 0 0 1 0 0 1 1 0 0 0 0 1 1 1 1
    0       1    1 1 1 1 0 1 1 1 1 0 1 1 1 0 0 0 0 0 1 1 1 1 0 1 0 1 0 0 0 0 0 1 0 1 0 1 0 0 1 1 0 1 1 1 1 1 0 1 1 0 1
    1       0    1 1 0 0 1 1 1 0 0 0 0 1 0 1 0 1 1 0 0 1 1 0 0 1 1
   16       2    0 1 1 1 0 1 0 1 0 0 1 0 1 0 0 1 0 1 1 0 1 0 1 1 1 1 0 0 0 1 1 0 1 1 1 1 0 0 0 0 1 1 1 0 0 0 0 1 1 1 1
    0       1    1 1 1 1 0 1 0 1 1 0 1 0 1 0 0 0 0 0 1 1 1 0 0 1 0 1 0 0 0 0 0 0 0 1 0 1 0 0 1 1 1 1 1 1 1 1 0 1 1 0 1
    1       0    1 1 0 0 1 1 1 0 0 0 0 1 0 1 0 1 0 0 0 1 1 0 0 1 1
   17       2    0 0 1 0 0 1 0 1 0 0 1 0 1 0 0 0 0 1 0 0 1 0 0 1 1 1 0 0 0 1 1 0 1 0 1 1 0 1 0 0 0 1 1 0 0 0 1 1 1 1 1
    0       1    1 1 1 1 0 0 1 1 0 0 1 1 1 0 0 0 1 0 1 1 0 1 0 1 0 1 0 0 0 0 0 1 0 1 1 1 0 0 1 1 1 1 1 1 1 1 0 1 1 0 1
    1       0    1 1 0 0 1 1 1 0 0 0 0 1 0 1 0 1 1 0 0 1 1 0 0 1 1
   18       2    0 0 1 0 0 1 0 1 0 0 1 0 1 0 0 0 1 1 0 0 1 0 0 1 0 0 0 0 0 0 1 1 0 1 1 1 0 1 0 0 0 1 1 0 0 0 1 1 1 1 1
    0       1    1 1 1 1 1 0 1 1 1 0 1 1 1 0 0 1 0 0 0 1 0 1 0 0 0 1 0 0 0 0 0 0 0 1 0 1 0 0 1 1 1 1 1 1 1 1 0 1 1 0 1
    1       0    1 1 0 0 1 1 1 0 0 0 0 1 0 1 0 0 1 0 0 1 1 0 0 1 1
   19       2    0 0 1 1 0 1 0 1 0 0 1 0 0 0 0 1 0 1 1 0 1 0 0 1 0 1 0 0 0 1 1 0 1 1 0 1 0 1 0 0 1 0 1 0 0 0 0 1 1 1 1
    0       1    1 1 1 1 0 1 0 1 1 0 1 1 1 0 0 1 0 0 0 1 1 1 0 1 0 1 0 0 0 0 0 1 0 0 0 1 0 0 1 1 1 1 1 1 1 1 0 1 1 0 1
    1       0    1 1 0 0 1 1 1 0 0 0 0 1 0 1 0 0 1 0 0 1 1 0 0 1 1
   20       2    0 0 1 0 0 1 0 1 0 0 1 0 0 0 0 0 1 1 0 0 1 0 0 1 0 0 0 0 0 0 1 1 0 0 1 1 0 1 0 0 0 1 1 0 0 0 1 1 1 1 1
    0       1    1 1 1 1 1 0 1 1 0 0 1 1 1 0 0 0 1 0 1 0 0 0 0 1 0 1 0 0 0 0 0 0 0 1 1 1 0 0 1 1 0 1 1 1 1 1 0 1 1 0 1
    1       0    1 1 0 0 1 1 1 0 0 0 0 0 0 1 0 1 1 0 0 1 1 0 0 1 1
   21       2    0 0 1 1 0 1 0 1 0 0 1 0 1 0 0 1 0 1 0 0 1 0 0 1 1 1 0 0 0 0 1 0 1 1 1 1 0 0 1 0 1 1 1 0 0 1 0 1 1 1 1
    0       1    1 1 1 1 0 1 1 1 1 0 1 1 1 0 0 0 0 0 1 1 1 1 0 1 0 1 0 0 0 0 0 0 0 1 0 1 0 0 1 1 1 1 1 1 1 1 0 1 1 0 1
    1       0    1 1 0 0 1 1 1 0 0 0 0 1 0 1 0 1 1 0 0 1 1 0 0 1 1
   22       2    0 1 1 1 0 1 0 1 0 0 1 0 0 1 0 1 0 1 1 0 1 0 1 1 0 1 0 0 0 1 1 0 1 1 1 1 0 0 0 0 1 0 1 0 0 0 0 1 1 1 1
    0       1    1 1 1 1 0 1 0 1 1 0 1 1 1 0 0 1 0 0 0 1 1 1 0 1 0 1 0 0 0 0 0 1 0 1 0 1 0 0 1 1 1 1 1 1 1 1 0 1 1 0 1
    1       0    1 1 0 0 1 1 1 0 0 0 0 1 0 1 0 1 1 0 0 1 1 0 0 1 1
   23       2    0 0 1 0 0 1 0 1 0 0 1 0 1 0 0 1 0 1 1 0 1 0 0 1 1 1 0 0 0 0 1 0 1 1 0 1 0 1 0 0 1 1 1 0 0 0 0 1 1 1 1
    0       1    1 1 1 1 0 1 0 1 1 0 1 0 1 0 0 0 0 0 1 1 1 0 0 1 0 1 0 0 0 0 0 0 0 0 0 1 0 0 1 1 1 1 1 1 1 1 0 1 1 0 1
    1       0    1 1 0 0 1 1 1 0 0 1 0 1 0 1 0 0 0 0 0 1 1 0 0 1 1
   24       2    0 0 1 1 0 1 0 1 0 0 1 0 1 0 0 1 0 1 1 0 1 0 0 1 1 1 0 0 0 0 1 0 1 1 1 1 0 0 1 0 0 1 1 0 0 1 0 1 1 1 1
    0       1    1 1 1 1 1 1 1 1 1 0 1 1 1 0 0 0 0 0 1 1 1 1 0 1 0 1 0 0 0 0 0 1 0 1 0 1 0 0 1 1 0 1 1 1 1 1 0 1 1 0 1
    1       0    1 1 0 0 1 1 1 0 0 0 0 1 0 1 0 1 1 0 0 1 1 0 0 1 1
   25       2    0 0 1 1 0 1 0 1 0 0 1 0 0 0 0 0 0 1 0 1 0 0 0 1 1 1 0 0 0 0 1 0 1 0 1 1 0 0 1 0 1 1 1 0 0 0 0 1 1 1 1
    0       1    1 1 1 1 0 1 1 1 0 0 1 1 1 0 0 0 0 0 1 1 1 1 0 1 0 1 0 0 0 0 0 0 0 1 0 1 0 0 1 1 1 1 1 1 1 1 0 1 1 0 1
    1       0    1 1 0 0 1 1 1 0 0 0 0 1 0 1 0 1 1 0 0 1 1 0 0 1 1
   26       2    0 0 1 1 0 1 0 1 0 0 1 0 0 0 0 1 0 1 0 0 1 0 0 1 1 1 0 0 1 0 1 0 1 1 1 1 0 0 1 0 1 1 1 0 0 1 0 1 1 1 1
    0       1    1 1 1 1 0 1 1 1 1 1 1 1 1 0 0 0 0 0 1 1 1 1 0 1 0 1 0 0 0 0 0 1 0 1 0 1 0 0 1 1 0 1 1 1 1 1 0 1 1 0 1
    1       0    1 1 0 0 1 1 1 0 0 0 0 1 0 1 0 1 1 0 0 1 1 0 0 1 1
   27       2    1 0 1 1 0 1 0 1 0 0 1 0 1 0 0 0 0 1 1 0 1 0 0 1 1 1 0 0 0 0 1 0 1 0 1 1 0 0 1 0 0 1 1 0 0 0 0 1 1 1 1
    0       1    1 1 1 1 0 1 1 1 1 0 1 1 1 0 0 0 0 0 1 1 1 1 0 1 0 1 0 0 0 0 0 0 0 1 0 1 0 0 1 1 1 1 1 1 1 1 0 1 1 0 1
    1       0    1 1 0 0 1 1 1 0 0 0 0 1 0 1 0 1 1 0 0 1 1 0 0 1 1
   28       2    0 0 1 1 0 1 0 1 0 0 1 0 0 0 0 0 0 1 1 0 1 0 0 1 1 1 0 0 0 0 1 0 1 0 0 1 0 0 0 0 0 1 1 0 0 0 0 1 1 1 1
    0       1    1 1 1 1 0 1 0 0 1 0 1 1 1 0 0 1 0 0 0 1 1 1 0 1 0 1 0 0 0 0 0 1 0 1 0 1 0 0 1 1 0 1 1 1 1 1 0 1 1 0 1
    1       0    1 1 0 0 1 1 1 0 0 0 0 1 0 1 0 1 1 0 0 1 1 0 0 1 1
   29       2    0 0 1 0 0 1 0 1 0 0 1 0 0 0 0 0 0 1 0 0 1 0 0 1 1 1 0 0 0 1 1 0 1 0 1 1 0 1 0 0 1 1 1 0 0 0 1 1 1 1 1
    0       1    1 1 1 1 0 1 1 1 0 0 1 1 1 0 0 0 1 0 1 1 0 1 0 1 0 1 0 0 0 0 0 0 0 1 0 1 0 0 1 1 1 1 1 1 1 1 0 1 1 0 1
    1       0    1 1 0 0 1 1 1 0 0 0 0 1 0 1 0 1 1 0 0 1 1 0 0 1 1
   30       2    0 1 1 1 0 1 0 1 0 0 1 0 0 1 0 0 0 1 1 0 1 0 1 1 0 1 0 0 0 0 1 0 1 1 0 1 0 0 0 0 0 1 1 0 0 0 0 1 1 1 1
    0       1    1 1 1 1 0 1 0 0 1 0 1 1 1 0 0 1 0 0 0 1 0 1 0 1 0 1 0 0 0 0 0 1 0 1 0 1 0 0 1 1 1 1 1 1 1 1 0 1 1 0 1
    1       0    1 1 0 0 1 1 1 0 0 0 0 1 0 1 0 1 1 0 0 1 1 0 0 1 1
   31       2    0 0 1 1 0 1 0 1 0 0 1 0 0 0 0 1 0 1 1 0 0 0 0 1 1 1 0 0 0 1 1 1 1 0 1 1 0 0 0 0 1 0 1 0 0 0 0 1 1 1 1
    0       1    1 1 1 1 0 1 0 1 1 0 1 1 1 0 0 1 0 0 0 1 1 1 0 1 0 1 0 0 0 0 0 1 0 1 0 1 0 0 1 1 0 1 1 1 1 1 0 1 1 0 1
    1       0    1 1 0 0 1 1 1 0 0 0 0 1 0 1 0 1 1 0 0 1 1 0 0 1 1
   32       2    0 0 1 1 0 1 0 1 0 0 1 0 1 0 0 0 1 1 0 0 1 0 0 1 0 0 1 0 0 0 1 0 1 1 1 1 0 0 1 0 0 1 1 0 0 0 0 1 1 1 1
    0       1    1 1 1 1 1 0 1 1 1 0 1 1 1 0 0 1 0 0 1 1 1 1 0 1 0 1 0 0 0 0 0 0 0 1 0 1 0 0 1 1 0 1 1 1 1 1 0 1 1 0 1
    1       0    1 1 0 0 1 1 1 0 0 0 0 1 0 1 0 1 1 0 0 1 1 0 0 1 1
   33       2    0 0 1 0 0 1 0 1 0 0 1 0 0 0 0 1 0 1 1 0 1 0 0 1 1 1 0 0 0 1 1 0 1 0 1 1 0 0 0 0 0 1 1 0 0 0 0 1 1 1 1
    0       1    1 1 1 1 1 1 1 1 1 0 1 1 1 0 0 0 1 0 1 1 0 0 0 1 0 1 0 0 0 0 0 1 0 1 0 1 0 0 1 1 0 1 1 1 1 1 0 1 1 0 1
    1       0    1 1 0 0 1 1 1 0 0 0 0 1 0 1 0 1 0 0 0 1 1 0 0 1 1
   34       2    0 0 1 0 0 1 0 1 0 0 1 0 1 0 0 0 1 1 0 0 1 0 0 1 0 0 1 0 0 0 1 1 0 1 1 1 0 0 1 0 0 1 1 0 0 0 1 1 1 1 1
    0       1    1 1 1 1 1 0 1 1 1 0 1 1 1 0 0 1 1 0 0 1 0 1 1 0 0 1 0 0 0 0 0 0 0 0 0 1 0 0 0 0 1 1 1 1 1 1 0 1 1 0 1
    1       0    1 1 0 0 1 1 1 0 0 0 0 1 0 1 0 0 0 0 0 1 1 0 0 1 1
   35       2    0 0 1 0 0 1 0 1 0 0 1 0 1 0 0 0 1 1 1 0 1 0 1 1 1 1 1 0 1 1 1 1 0 0 1 1 0 0 0 0 0 1 1 1 1 0 1 1 1 1 1
    0       1    1 1 1 1 0 1 1 1 0 0 1 1 1 0 0 1 0 0 0 1 0 0 0 1 0 1 0 0 0 0 0 0 0 0 0 1 0 0 1 1 1 1 1 1 1 1 0 1 1 0 1
    1       0    1 1 0 0 1 1 1 0 1 0 0 1 0 1 0 0 0 0 0 1 1 0 0 1 1
   36       2    0 0 1 0 1 1 0 1 0 0 1 0 0 1 0 1 1 1 1 0 1 0 0 0 0 0 0 0 0 1 1 0 0 1 0 0 0 1 0 0 1 0 1 0 0 0 0 1 1 1 1
    0       1    1 1 1 1 0 1 0 1 0 0 1 1 1 0 0 1 0 0 0 1 1 1 0 0 0 1 0 0 0 0 0 1 0 0 0 1 0 0 1 1 0 1 1 1 1 1 0 1 1 0 1
    1       0    1 1 0 0 1 1 1 0 0 0 0 1 0 1 0 0 1 0 0 1 1 0 0 1 1
   37       2    0 0 1 1 0 1 0 1 0 0 1 0 1 0 0 0 1 1 0 0 1 0 0 1 1 1 0 0 0 0 1 1 1 1 1 1 0 1 0 0 1 1 1 0 0 0 0 1 1 1 1
    0       1    1 1 1 1 1 1 1 1 1 0 1 1 1 0 0 1 1 0 1 1 0 0 0 1 0 1 0 0 0 0 0 0 0 1 1 1 0 0 1 1 1 1 1 1 1 1 0 1 1 0 1
    1       0    1 1 0 0 1 1 1 0 0 0 0 0 0 1 0 1 1 0 0 1 1 0 0 1 1
   38       2    0 1 1 1 0 1 0 1 0 0 1 0 0 0 0 1 0 1 1 0 1 0 1 1 0 1 0 0 0 1 1 0 1 1 0 1 0 0 0 0 1 1 1 0 0 0 0 1 1 1 1
    0       1    1 1 1 1 0 1 0 1 1 0 1 1 1 0 0 0 0 0 0 1 1 1 0 1 0 1 0 0 0 0 0 1 0 1 0 1 0 0 1 1 1 1 1 1 1 1 0 1 1 0 1
    1       0    1 1 0 0 1 1 1 0 0 0 0 1 0 1 0 1 0 0 0 1 1 0 0 1 1
   39       2    0 0 1 0 0 1 0 1 0 0 1 0 1 0 0 1 0 1 1 0 1 0 0 0 0 0 0 0 1 0 1 0 0 1 1 1 1 1 0 0 0 1 1 0 0 0 1 1 1 1 1
    0       1    1 1 1 1 1 1 1 1 1 0 1 1 1 0 0 1 0 0 0 1 0 1 0 0 0 1 0 0 0 0 0 0 0 0 0 1 0 0 1 1 1 1 1 1 1 1 0 1 1 0 1
    1       0    1 1 0 0 1 1 1 0 0 0 0 1 0 1 0 0 1 0 0 1 1 0 0 1 1
   40       2    0 0 1 0 0 1 0 1 0 0 1 0 1 0 0 0 0 1 0 0 1 0 0 1 0 1 0 0 0 1 1 0 0 1 1 1 0 1 1 0 0 1 1 0 0 0 1 1 1 1 1
    0       1    1 1 1 1 1 0 1 1 1 0 1 1 1 0 0 1 0 0 0 1 1 1 1 0 0 1 0 0 0 0 0 0 0 0 1 1 0 0 0 1 1 1 1 1 1 1 0 1 1 0 1
    1       0    1 1 0 0 1 1 1 0 0 0 0 1 0 1 0 0 1 0 0 1 1 0 0 1 1
   41       2    0 0 1 1 1 1 0 1 0 0 1 0 0 0 0 1 0 1 1 0 1 0 0 1 0 1 0 0 0 0 1 0 0 1 1 0 0 1 0 0 1 1 1 0 0 0 0 1 1 1 1
    0       1    1 1 1 1 0 1 0 1 0 0 1 1 1 0 0 1 0 0 0 1 1 1 0 1 0 1 0 0 0 0 0 1 0 0 0 1 0 0 1 1 1 1 1 1 1 1 0 1 1 0 1
    1       0    1 1 0 0 1 1 1 0 0 0 1 1 0 1 0 0 0 0 0 1 1 0 0 1 1
   42       2    0 0 1 0 1 1 0 1 0 0 1 0 0 0 0 1 0 1 1 0 1 0 0 1 1 1 0 0 0 1 1 0 1 0 1 1 0 0 0 0 1 1 1 0 0 0 0 1 1 1 1
    0       1    1 1 1 1 0 1 1 0 0 0 1 1 1 0 0 1 1 0 0 1 0 0 0 1 0 1 0 0 0 0 0 1 0 1 0 1 0 0 1 1 0 1 1 1 1 1 0 1 1 0 1
    1       0    1 1 0 0 1 1 1 0 0 0 0 1 0 1 0 1 0 1 0 1 1 0 0 1 1
   43       2    1 0 1 1 0 1 0 1 0 0 1 0 1 0 0 1 0 1 1 0 1 0 0 1 0 1 0 0 0 0 1 0 1 1 1 1 0 0 0 0 1 0 1 0 0 0 0 1 1 1 1
    0       1    1 1 1 1 0 1 1 1 1 0 1 1 1 0 0 1 0 0 0 1 1 1 0 1 0 1 0 0 0 0 0 0 0 1 0 1 0 0 1 1 1 1 1 1 1 1 0 1 1 0 1
    1       0    1 1 0 0 1 1 1 0 0 0 0 1 0 1 0 0 1 0 0 1 1 0 0 1 1
   44       2    0 1 1 0 1 1 0 1 0 0 1 0 0 0 0 1 1 1 0 0 1 0 0 1 0 0 0 0 0 1 1 1 0 1 1 1 0 1 1 0 0 1 1 0 0 0 0 1 1 1 1
    0       1    1 1 1 1 1 1 1 1 1 0 1 1 1 0 0 1 1 0 1 1 0 0 1 0 0 1 0 0 0 0 0 1 0 0 0 1 0 0 1 0 1 1 1 1 1 1 0 1 1 0 1
    1       0    1 1 0 0 1 1 1 0 0 0 0 1 0 1 0 0 0 0 0 1 1 0 0 1 1
   45       2    0 0 0 0 0 1 0 1 0 0 1 0 1 0 0 1 0 1 1 0 1 0 0 1 1 1 0 0 0 0 1 0 1 1 0 1 0 0 1 0 1 1 1 0 0 0 0 1 1 1 1
    0       1    1 1 1 1 0 1 0 1 1 0 1 1 1 0 0 0 0 0 1 1 1 0 0 1 0 1 0 0 0 0 0 0 0 1 0 1 0 0 1 1 0 1 1 1 1 1 0 1 1 0 1
    1       0    1 1 0 0 1 1 1 0 0 1 0 1 0 1 0 1 1 0 0 1 1 0 0 1 1
   46       2    0 0 1 0 0 1 0 1 0 0 1 0 1 1 0 1 1 1 0 0 1 0 0 1 0 0 0 0 0 1 1 1 0 0 1 1 0 0 0 0 0 1 1 0 0 0 0 1 1 1 1
    0       1    1 1 1 1 1 0 1 1 1 0 1 1 1 0 0 1 0 0 0 1 0 0 0 0 0 1 0 0 0 0 0 0 0 1 0 1 0 0 1 1 1 1 1 1 1 1 0 1 1 0 1
    1       0    1 1 0 0 1 1 1 0 0 0 0 1 0 1 0 0 0 0 0 1 1 0 0 1 1
   47       2    0 0 1 1 0 1 0 1 0 0 1 0 1 0 0 1 0 1 1 0 1 0 1 0 0 1 0 0 1 0 1 0 1 1 1 1 0 1 0 0 1 0 1 0 0 0 1 1 1 1 1
    0       1    1 1 1 1 0 1 1 1 1 0 1 1 1 0 0 1 0 0 0 1 1 1 0 0 0 1 0 0 0 0 0 1 0 1 0 1 0 0 1 1 1 1 1 1 1 1 0 1 1 0 1
    1       0    1 1 0 0 1 1 1 0 0 0 0 1 0 1 0 1 1 0 0 1 1 0 0 1 1
   48       2    0 1 1 0 0 1 0 1 0 0 1 0 0 1 0 1 0 1 1 0 1 0 0 1 0 0 0 0 0 1 1 0 0 1 1 1 1 0 0 0 0 1 1 0 0 0 0 1 1 1 1
    0       1    1 1 1 1 1 1 0 1 1 0 1 1 1 0 0 0 0 0 0 1 0 1 0 1 0 1 0 0 0 0 0 0 0 0 0 1 0 1 1 1 1 1 1 1 1 1 0 1 1 0 1
    1       0    1 1 0 0 1 1 1 0 0 0 0 1 0 0 0 0 1 0 0 1 1 0 0 1 1
   49       2    0 0 1 1 0 1 0 1 0 0 1 0 0 0 0 1 0 1 1 0 1 0 0 1 1 1 1 0 0 1 1 0 1 0 1 1 0 0 0 0 0 1 0 0 0 0 0 1 1 1 1
    0       1    1 1 1 1 1 1 1 1 1 0 1 1 1 0 0 1 1 0 1 1 1 0 0 1 0 1 0 0 0 0 0 0 0 1 0 1 0 0 1 1 0 1 1 1 1 1 0 1 1 0 1
    1       0    1 1 0 0 1 1 1 0 0 0 0 1 0 1 0 1 1 0 0 1 1 0 0 1 1
   50       2    0 0 1 0 0 1 0 1 0 0 1 0 1 0 0 0 1 1 0 0 1 0 0 1 0 0 0 0 0 0 1 0 1 1 1 1 1 0 1 0 0 1 1 0 0 0 0 1 1 1 1
    0       1    1 1 1 1 1 0 1 1 1 0 1 1 1 0 0 0 0 0 1 1 0 1 0 1 0 1 0 0 0 0 0 1 0 1 0 1 0 0 1 1 0 1 1 1 1 1 0 1 1 0 1
    1       0    1 1 0 0 1 1 1 0 0 0 0 1 0 1 0 1 0 0 0 1 1 0 0 1 1
   51       2    0 0 1 1 0 1 0 1 0 0 1 0 0 0 0 1 0 0 1 0 1 0 0 1 1 1 0 0 0 1 1 1 1 1 1 1 0 1 0 0 0 1 1 0 0 0 0 1 1 1 1
    0       1    1 1 1 1 1 1 1 1 1 0 1 1 1 0 0 1 0 0 1 1 0 0 0 1 0 1 0 0 0 0 0 0 0 1 0 1 0 0 1 1 1 1 1 1 1 1 0 1 1 0 1
    1       0    1 1 0 0 1 1 1 0 0 0 0 1 0 1 0 1 1 0 0 1 1 0 0 1 1
   52       2    0 0 1 0 0 1 0 1 0 0 1 0 0 0 0 0 0 1 0 0 1 0 0 1 1 1 0 0 0 0 1 0 1 0 1 1 0 1 0 0 0 1 1 0 0 0 0 1 1 1 1
    0       1    1 1 1 1 0 1 0 1 0 0 1 1 1 0 0 1 0 0 1 0 0 0 0 1 0 1 0 0 0 0 0 0 0 1 0 1 0 0 1 1 0 1 1 1 1 1 0 1 1 0 1
    1       0    1 1 0 0 1 1 1 0 0 0 0 0 0 1 0 1 1 0 0 1 1 0 0 1 1
   53       2    0 0 1 0 0 1 0 1 0 0 1 0 0 0 0 1 1 1 1 0 1 0 1 0 0 1 0 0 0 1 1 1 0 1 1 1 0 1 0 1 1 1 1 1 0 0 1 1 1 1 1
    0       1    1 1 1 1 0 1 1 1 0 0 1 1 1 0 0 1 0 0 0 1 0 0 0 1 0 1 0 0 0 0 0 1 0 0 0 1 0 0 1 1 0 1 1 1 1 1 0 1 1 0 1
    1       0    1 1 0 0 1 1 1 0 1 1 0 1 0 1 0 0 1 0 0 1 1 0 0 1 1
   54       2    0 1 1 1 0 1 0 1 0 0 1 0 0 0 0 0 0 1 1 0 1 0 1 0 0 1 0 0 0 1 1 0 1 1 0 1 0 0 0 0 1 1 1 0 0 0 0 1 1 1 1
    0       1    1 1 1 1 0 1 0 0 1 0 1 1 1 0 0 1 0 0 0 1 1 1 0 1 0 1 0 0 0 0 0 1 0 1 0 1 0 0 1 1 1 1 1 1 1 1 0 1 1 0 1
    1       0    1 1 0 0 1 1 1 0 0 0 0 1 0 1 0 1 1 0 0 1 1 0 0 1 1
   8800000.00000000        1618033.00000000       0.000000000000000E+000
  1.136363636363636E-007   8691316.00000000        3852669.00000000     
           1           4          35
   3598993.00000000        5424740.00000000        3895899.00000000     
   8691316.00000000        5150548.00000000        4341854.00000000     
   5998083.00000000        5645027.00000000        5610454.00000000     
   7687924.00000000        3754319.00000000        1790208.00000000     
   7338637.00000000        5098682.00000000        6458813.00000000     
   1788721.00000000        6724458.00000000        8031077.00000000     
   3066037.00000000        6175338.00000000        1610406.00000000     
   7493654.00000000        4173746.00000000        4191197.00000000     
   7094823.00000000        7489516.00000000        2146543.00000000     
   9660.00000000000        592535.000000000        4592464.00000000     
   8247272.00000000        5070358.00000000        4363471.00000000     
   5524903.00000000        5357950.00000000        2820980.00000000     
   4094709.00000000        5753109.00000000        1152437.00000000     
   4727244.00000000        5932474.00000000        6373675.00000000     
   6142575.00000000        1996965.00000000        7835916.00000000     
   8098471.00000000        7467181.00000000        4915212.00000000     
   1718197.00000000        1454861.00000000        6179301.00000000     
   8665670.00000000        4833050.00000000        7012187.00000000     
   1787866.00000000     
   8800000.00000000        1618033.00000000       0.000000000000000E+000
  1.136363636363636E-007   6029055.00000000        8395837.00000000     
           1          16          47
   1267510.00000000        7102312.00000000        4269729.00000000     
   2323862.00000000        6999247.00000000        4193282.00000000     
   963920.000000000        8106002.00000000        4894329.00000000     
   1399957.00000000        8344743.00000000        7548994.00000000     
   4875816.00000000        5352202.00000000        5836787.00000000     
   6029055.00000000        7752986.00000000        7166016.00000000     
   3501073.00000000        461038.000000000        6438215.00000000     
   8668912.00000000        4612940.00000000        5104199.00000000     
   2142646.00000000        2457182.00000000        6155875.00000000     
   3003052.00000000        7663821.00000000        5492975.00000000     
   4550812.00000000        7411115.00000000        4279220.00000000     
   7744752.00000000        264240.000000000        1963422.00000000     
   766418.000000000        4205915.00000000        3450425.00000000     
   5293673.00000000        2882790.00000000        10940.0000000000     
   7244161.00000000        3358150.00000000        5286646.00000000     
   3107238.00000000        6546053.00000000        1172633.00000000     
   3004738.00000000        4426300.00000000        1512919.00000000     
   3156619.00000000        3381752.00000000        1079615.00000000     
   7619237.00000000     
   8800000.00000000        1618033.00000000       0.000000000000000E+000
  1.136363636363636E-007   4444050.00000000        7073189.00000000     
           1          22          53
   5217011.00000000        3758576.00000000        3644564.00000000     
   6019255.00000000        1627492.00000000        335797.000000000     
   4447258.00000000        8553528.00000000        2326435.00000000     
   7623353.00000000        4461487.00000000        2337485.00000000     
   1139139.00000000        6952038.00000000        2951826.00000000     
   1085734.00000000        2506997.00000000        4622768.00000000     
   6040649.00000000        682974.000000000        906685.000000000     
   4444050.00000000        1757471.00000000        6896657.00000000     
   3831106.00000000        3387438.00000000        8148159.00000000     
   6548037.00000000        6992563.00000000        613814.000000000     
   8047518.00000000        8173089.00000000        4715288.00000000     
   2026015.00000000        6150308.00000000        773177.000000000     
   7333153.00000000        2232278.00000000        3349564.00000000     
   3640024.00000000        4704558.00000000        6771400.00000000     
   2076.00000000000        2689689.00000000        171526.000000000     
   6142100.00000000        6840393.00000000        1408649.00000000     
   4106329.00000000        5977996.00000000        304959.000000000     
   4408300.00000000        1080976.00000000        2824206.00000000     
   646521.000000000     
