          57          54   1.00000000000000     
    1       2    0 1 0 0 0 0 0 1 0 1 0 1 1 0 1 0 0 0 0 1 1 0 0 0 0 0 0 1 1 1 0 1 0 1 0 1 1 0 1 1 1 0 0 0 0 1 0 1 1 1 0
    0       0    1 0 1 0 0 0 1 0 1 1 0 0 0 1 0 0 1 1 0 1 1 1 0 0 1 1 0 0 0 0 0 0 1 0 1 1 0 1 1 0 1 1 1 1 1 1 1 1 0 0 1
    1       1    0 1 0 0 1 0 1 0 1 1 1 1 1 1 1 1 1 1 0 1 1 0 0 1 1
    2       2    0 1 0 0 0 0 0 1 0 1 0 1 1 0 1 0 0 0 1 1 1 0 0 0 0 0 0 1 0 1 1 1 0 0 0 1 1 0 1 1 1 0 0 0 0 1 1 1 1 1 0
    0       0    1 0 1 0 0 0 0 0 1 1 1 0 0 1 0 0 1 1 0 1 1 1 0 0 1 1 0 0 0 0 0 0 1 0 1 1 0 1 1 0 1 1 1 1 1 1 1 1 0 0 0
    1       1    0 1 0 0 1 0 1 0 1 1 1 1 1 1 0 1 1 1 0 1 1 0 0 1 1
    3       2    0 1 0 0 0 0 0 1 0 1 0 1 1 0 1 0 0 0 1 0 1 0 1 0 1 1 0 0 0 1 0 1 0 0 0 1 1 0 1 1 1 0 0 0 0 1 1 1 1 1 0
    0       0    1 0 1 0 0 1 0 0 1 1 1 0 0 1 0 0 1 1 0 0 1 1 0 0 1 1 0 0 0 0 0 1 1 0 1 0 0 1 1 1 1 1 1 1 1 1 1 1 0 0 0
    1       1    0 1 0 0 1 0 1 0 1 1 1 1 1 1 0 1 1 1 0 1 1 0 0 1 1
    4       2    0 1 0 0 0 0 0 1 0 1 0 0 1 0 1 0 0 0 1 1 0 0 1 0 0 0 0 1 0 1 1 1 0 0 0 1 1 0 1 1 1 0 0 0 0 1 1 1 1 1 0
    0       0    1 0 1 0 0 0 0 0 1 1 1 0 1 1 0 0 1 1 0 1 1 1 0 0 1 1 0 0 0 0 0 1 0 0 1 1 0 1 1 0 1 1 1 1 1 1 1 1 0 0 0
    1       1    0 1 0 0 1 0 1 0 1 1 1 1 1 1 0 1 1 1 0 1 1 0 0 1 1
    5       2    0 1 0 0 0 0 0 1 0 1 0 1 1 0 0 0 0 1 1 1 1 1 1 0 1 0 0 0 1 1 1 1 1 0 0 1 1 0 1 1 1 0 1 0 0 0 1 1 1 1 0
    0       0    0 0 1 0 0 1 1 0 1 0 1 0 0 0 1 0 1 1 0 1 1 1 0 0 1 1 0 0 0 0 0 0 1 0 1 0 0 1 1 1 1 1 1 1 1 1 1 1 0 0 1
    1       1    0 1 0 0 0 0 1 1 1 1 1 1 1 1 0 1 1 1 0 1 1 0 0 1 1
    6       2    0 1 0 0 0 0 0 1 0 1 0 1 1 0 0 0 0 0 1 1 1 0 1 0 1 0 0 1 0 1 0 1 0 0 0 1 1 0 1 1 1 0 0 0 0 1 1 1 1 1 0
    1       0    1 0 1 0 0 1 0 1 1 1 0 0 0 0 0 0 0 1 0 1 1 1 0 0 1 1 0 0 0 0 0 0 1 0 1 0 0 1 1 1 1 1 1 1 1 1 1 1 0 0 1
    1       1    0 0 1 0 1 0 1 0 1 1 1 1 1 1 0 0 1 1 0 1 1 0 0 1 1
    7       2    0 1 0 0 1 0 0 1 0 1 0 1 1 0 0 0 0 0 1 0 1 1 1 0 1 1 1 0 1 1 0 1 1 0 1 1 1 0 1 1 1 0 1 0 0 0 1 1 1 1 0
    0       0    1 0 1 0 0 1 0 1 1 1 1 0 0 0 0 1 1 1 0 1 0 1 0 0 1 1 0 0 0 0 0 0 1 1 1 0 0 1 1 1 1 1 1 1 1 1 0 1 0 0 1
    1       1    0 1 0 0 1 1 1 1 1 1 0 1 1 1 0 1 1 1 0 1 1 0 0 1 1
    8       2    0 1 0 0 0 0 0 1 0 1 0 1 1 0 1 1 0 0 0 1 1 0 1 0 1 1 0 0 0 1 0 1 0 0 0 0 1 0 1 1 1 0 0 0 0 0 1 1 1 1 0
    0       0    1 0 1 0 0 1 0 0 1 0 1 0 0 0 0 0 0 1 0 1 1 1 0 0 1 1 0 0 0 0 0 0 0 0 1 1 0 1 1 1 1 1 1 1 1 1 1 1 0 1 1
    1       1    0 1 0 0 1 0 1 0 1 1 1 0 1 1 0 1 1 1 0 1 1 0 0 1 1
    9       2    0 1 0 0 0 0 0 1 0 1 0 1 1 0 0 0 1 0 1 1 1 1 1 0 1 0 1 0 1 1 1 1 0 0 1 1 1 0 1 1 1 0 0 0 0 0 1 1 1 1 0
    1       0    0 0 1 0 0 1 1 1 1 0 1 0 1 0 0 0 1 1 0 1 0 1 0 0 1 1 0 0 0 0 0 0 1 0 1 0 0 1 1 1 1 1 1 1 1 1 0 1 0 1 1
    1       1    0 1 0 0 0 0 1 0 1 1 0 1 1 1 0 1 1 0 0 1 1 0 0 1 1
   10       2    0 1 0 0 0 0 0 1 0 1 0 1 1 0 0 0 0 0 1 0 1 0 1 0 1 1 0 0 1 1 0 1 0 0 1 1 1 0 1 1 1 0 0 0 0 0 1 1 1 1 0
    1       0    0 0 1 0 0 1 0 0 1 1 1 0 0 0 0 1 1 1 0 1 1 1 0 0 1 1 0 0 0 0 0 0 1 0 1 0 1 1 1 0 1 1 1 1 1 1 0 1 0 1 1
    1       1    0 1 0 0 0 0 1 0 0 1 1 0 1 1 0 0 1 1 0 1 1 0 0 1 1
   11       2    0 1 0 0 0 0 0 1 0 1 0 1 1 0 0 0 1 0 1 0 1 1 1 0 0 1 0 0 1 1 0 1 0 0 1 1 1 0 1 1 1 0 0 0 0 0 1 1 1 1 0
    1       0    0 0 1 0 0 1 0 0 1 0 1 0 1 0 0 0 0 1 0 1 0 0 0 0 1 1 0 0 0 0 0 0 1 0 1 0 0 1 1 0 1 1 1 1 1 1 0 1 0 1 1
    1       1    0 1 0 0 0 0 1 0 1 1 1 0 1 1 0 1 1 1 0 1 1 0 0 1 1
   12       2    0 1 0 0 0 0 0 1 0 1 0 1 1 0 0 0 0 0 1 1 1 0 1 0 1 0 0 0 1 1 0 1 0 0 1 1 1 0 1 1 1 0 0 0 0 0 1 1 1 1 0
    1       0    0 0 1 0 0 1 1 1 0 0 1 0 0 0 1 0 1 1 0 1 0 1 0 0 1 1 0 0 0 0 0 0 0 0 1 0 1 1 1 1 1 1 1 1 1 1 0 1 0 1 1
    1       1    0 1 0 0 0 0 1 0 1 1 1 1 1 1 0 1 1 0 0 1 1 0 0 1 1
   13       2    0 1 0 0 0 0 0 1 0 1 0 1 1 0 0 0 0 0 1 0 1 0 0 0 1 0 0 0 1 1 1 1 0 0 1 1 1 0 1 1 1 0 0 0 0 0 0 1 1 1 0
    1       0    0 0 1 0 0 1 0 0 1 0 1 0 0 1 0 1 1 1 0 1 1 1 0 1 1 1 0 0 0 0 0 0 0 0 1 0 0 1 1 1 1 1 1 1 1 1 0 1 0 1 1
    1       1    0 1 0 0 0 0 1 1 1 1 1 1 1 1 0 1 1 1 0 1 1 0 0 1 1
   14       2    0 1 0 0 0 0 0 1 0 1 0 1 1 0 1 0 0 0 1 0 0 0 1 0 1 1 0 0 0 1 0 1 0 0 0 1 1 0 1 1 1 0 0 0 0 1 1 1 1 1 0
    0       0    1 0 1 0 0 1 0 0 1 1 1 0 0 1 0 0 1 1 0 1 1 1 0 0 1 1 0 0 0 0 0 0 1 0 1 1 0 1 1 0 1 1 1 1 1 1 1 1 0 0 1
    1       1    0 1 0 0 1 0 1 0 1 1 1 1 1 1 0 1 1 1 0 1 1 0 0 1 1
   15       2    0 1 0 0 0 0 0 1 0 1 0 1 1 0 0 0 0 0 1 1 1 0 0 0 0 0 0 1 1 1 1 1 0 1 0 1 1 0 1 1 1 0 0 0 0 1 1 1 1 1 0
    0       0    1 0 1 0 0 0 1 0 1 1 1 0 0 1 0 0 1 1 0 1 1 1 0 0 1 1 0 0 0 0 0 0 0 0 1 1 0 1 1 0 1 1 1 1 1 1 1 1 0 0 1
    1       1    0 1 0 0 1 0 1 0 1 1 1 1 1 1 1 1 1 1 0 1 1 0 0 1 1
   16       2    0 1 0 0 0 0 0 1 0 1 0 1 1 0 1 0 0 0 1 1 0 0 1 0 0 1 0 1 0 1 0 1 0 0 0 1 1 0 1 1 1 0 0 0 0 1 1 1 1 1 0
    0       0    1 0 1 0 0 1 0 0 1 1 0 0 0 1 0 0 0 1 0 1 1 1 0 0 1 1 0 0 0 0 0 1 0 0 1 1 0 1 1 1 1 1 1 1 1 1 1 1 0 0 1
    1       1    0 1 0 0 1 0 1 0 1 1 1 1 1 1 0 1 1 1 0 1 1 0 0 1 1
   17       2    0 1 0 0 0 0 0 1 0 1 0 1 1 0 0 0 0 0 1 1 0 0 1 0 0 1 0 1 0 1 0 1 0 0 0 1 1 0 1 1 1 0 0 0 0 1 1 1 1 1 0
    0       0    1 0 1 0 0 1 0 0 1 1 0 0 0 1 0 0 0 1 0 1 1 1 0 0 1 1 0 0 0 0 0 0 0 0 1 1 0 1 1 1 1 1 1 1 1 1 1 1 0 0 1
    1       1    0 1 0 0 1 0 1 0 1 1 1 1 1 1 0 1 1 1 0 1 1 0 0 1 1
   18       2    0 1 0 0 0 0 0 1 0 1 0 1 1 0 1 0 0 0 0 1 1 0 0 0 0 1 0 1 0 1 0 1 0 0 0 1 1 0 1 1 1 0 0 0 0 1 1 1 1 1 0
    0       0    1 0 1 0 0 1 0 0 1 1 0 0 0 1 0 0 0 1 0 1 1 1 0 0 1 1 0 0 0 0 0 0 1 0 1 1 0 1 1 1 1 1 1 1 1 1 1 1 0 0 1
    1       1    0 1 0 0 1 0 1 0 0 1 1 1 1 1 0 1 1 1 0 1 1 0 0 1 1
   19       2    0 1 0 0 1 0 0 1 0 1 0 1 1 0 0 0 0 0 1 0 1 0 1 0 1 1 0 0 1 1 0 1 0 0 0 0 1 0 1 1 1 0 0 0 0 1 1 1 1 1 0
    0       0    1 0 1 0 0 1 0 0 1 1 1 0 0 1 0 1 0 1 0 1 1 1 0 0 1 1 0 0 0 0 0 0 1 1 1 0 0 1 1 0 1 1 1 1 1 1 1 1 0 0 1
    1       1    0 1 0 0 1 1 1 0 1 1 1 1 1 1 0 1 1 1 0 1 1 0 0 1 1
   20       2    0 1 0 0 0 0 0 1 0 1 0 1 1 0 0 0 0 0 1 0 1 0 1 0 1 0 0 1 1 1 1 1 0 0 1 1 1 0 1 1 1 0 0 0 0 1 1 1 1 1 0
    1       0    1 0 1 0 0 1 0 1 1 0 1 0 0 0 0 0 1 1 1 1 1 1 0 0 1 1 0 0 0 0 0 1 1 1 1 0 1 1 1 1 1 1 1 1 1 1 0 1 0 0 1
    1       1    0 0 1 1 1 0 1 0 1 1 0 1 1 1 0 0 1 1 0 1 1 0 0 1 1
   21       2    0 1 0 0 0 0 0 1 0 1 0 1 1 0 0 1 0 0 1 0 1 0 1 0 0 0 0 0 1 1 1 1 0 0 1 1 1 0 1 1 1 0 0 0 0 1 1 1 1 1 0
    1       0    1 0 1 0 0 1 1 1 1 0 1 0 0 0 0 0 1 1 1 1 1 1 1 0 1 1 0 0 0 0 0 1 1 1 1 0 1 1 1 1 1 1 1 1 1 1 0 1 0 0 1
    1       1    0 0 1 1 1 0 1 0 1 1 0 1 1 1 0 0 1 1 0 1 1 0 0 1 1
   22       2    0 1 0 0 0 0 0 1 0 1 0 1 0 0 0 0 0 1 1 0 1 0 1 0 1 0 0 1 1 1 1 1 0 0 1 1 1 0 1 1 1 0 0 0 0 1 1 1 1 1 0
    1       0    1 0 1 0 0 1 0 1 1 0 1 0 0 1 0 0 1 1 1 0 1 1 0 0 1 1 0 0 0 0 0 1 1 0 1 0 1 1 1 1 1 1 1 1 1 1 0 1 0 0 1
    1       1    0 0 1 1 1 0 1 0 1 1 0 0 1 1 1 0 1 1 0 1 1 0 0 1 1
   23       2    0 1 0 0 0 0 0 1 0 1 0 1 0 0 0 0 0 1 1 0 1 0 1 0 1 0 0 1 1 1 1 1 0 1 1 1 1 0 1 1 1 0 0 0 0 1 1 1 1 1 0
    1       0    1 0 1 0 0 1 0 1 1 0 1 0 0 1 0 0 1 1 1 1 1 1 0 0 1 1 0 0 0 0 0 1 1 0 1 0 1 1 1 1 1 1 1 1 1 1 0 1 0 0 1
    1       1    0 0 1 1 1 0 1 0 1 1 0 1 1 1 0 0 1 1 0 1 1 0 0 1 1
   24       2    0 1 0 0 0 0 0 1 0 1 0 1 1 0 0 0 0 0 1 1 1 0 1 1 1 0 0 1 1 1 1 0 0 0 1 1 1 0 1 1 1 0 0 0 0 1 1 1 1 1 0
    1       0    1 0 1 0 0 1 0 1 1 0 1 0 0 0 0 0 1 1 1 1 1 1 0 0 1 1 0 0 0 0 0 1 0 0 1 0 1 1 1 1 1 1 1 1 1 1 0 1 0 0 1
    1       1    0 0 1 1 1 0 1 0 1 1 0 0 1 1 0 0 1 1 0 1 1 0 0 1 1
   25       2    0 1 0 0 0 0 0 1 0 1 0 1 1 0 0 0 0 0 1 1 1 0 1 0 1 0 0 1 1 1 1 1 0 0 1 1 1 0 1 1 1 0 0 0 0 1 1 1 1 1 0
    1       0    1 0 1 0 0 1 0 1 1 0 1 0 0 0 0 0 1 1 1 1 1 1 0 0 1 1 0 0 0 0 0 1 1 0 1 0 1 1 1 1 1 1 1 1 1 1 0 1 0 0 1
    1       1    0 0 1 1 1 0 1 0 1 1 0 1 1 1 0 0 1 1 0 1 1 0 0 1 1
   26       2    0 1 0 0 0 0 0 1 0 1 0 1 1 0 0 0 0 0 1 1 1 0 1 0 1 0 0 1 1 1 1 1 0 0 1 1 1 0 1 1 1 0 0 0 0 1 1 1 1 1 0
    1       0    1 0 1 0 0 1 0 1 1 0 1 0 0 0 0 0 1 1 1 1 1 1 0 0 1 1 0 0 0 0 0 1 1 0 1 0 1 1 1 1 1 1 1 1 1 1 0 1 0 0 1
    1       1    0 0 1 1 1 0 1 0 1 1 0 1 1 1 0 0 1 1 0 1 1 0 0 1 1
   27       2    0 1 0 0 0 0 0 1 0 1 0 1 1 0 0 0 0 0 1 1 1 0 1 0 1 0 0 1 1 1 1 1 0 0 1 1 1 0 1 1 1 0 0 0 0 1 1 1 1 1 0
    1       0    1 0 1 0 0 1 0 1 1 0 1 0 0 0 0 0 1 1 1 1 1 1 0 0 1 1 0 0 0 0 0 1 1 0 1 0 1 1 1 1 1 1 1 1 1 1 0 1 0 0 1
    1       1    0 0 1 1 1 0 1 0 1 1 0 1 1 1 0 0 1 1 0 1 1 0 0 1 1
   28       2    0 1 0 0 0 0 0 1 0 1 0 1 1 0 0 0 0 1 1 0 1 0 1 0 0 0 0 0 1 1 1 1 0 0 1 1 1 0 1 1 1 0 0 0 0 1 1 1 1 1 0
    1       0    1 0 1 0 0 1 0 1 1 0 1 0 0 0 0 0 1 1 1 1 1 1 0 0 1 1 0 0 0 0 0 1 1 1 1 0 1 1 1 1 1 1 1 1 1 1 0 1 0 0 1
    1       1    0 0 1 1 1 0 1 0 1 1 0 0 1 1 1 0 1 1 0 1 1 0 0 1 1
   29       2    0 1 0 0 0 0 0 1 0 1 0 1 0 0 0 0 0 1 1 0 1 0 1 0 0 0 0 0 1 1 1 1 0 0 1 1 1 0 1 1 1 0 0 0 0 1 1 1 1 1 0
    1       0    1 0 1 0 0 1 0 1 1 0 1 0 0 0 0 0 1 1 1 0 1 1 0 0 1 1 0 0 0 0 0 1 1 1 1 0 1 1 1 1 1 1 1 1 1 1 0 1 0 0 1
    1       1    0 0 1 1 1 0 1 0 1 1 0 0 1 1 1 0 1 1 0 1 1 0 0 1 1
   30       2    0 1 0 0 0 0 0 1 0 1 0 1 1 0 0 0 0 0 1 0 1 0 1 0 0 0 0 0 1 1 1 1 0 0 1 1 1 0 1 1 1 0 0 0 0 1 1 1 1 1 0
    1       0    1 0 1 0 0 1 0 1 1 0 1 0 0 0 0 0 1 1 1 1 1 1 1 0 1 1 0 0 0 0 0 1 1 1 1 0 1 1 1 1 1 1 1 1 1 1 0 1 0 0 1
    1       1    0 0 1 1 1 0 1 0 1 1 0 1 1 1 0 0 1 1 0 1 1 0 0 1 1
   31       2    0 1 0 0 0 0 0 1 0 1 0 1 0 0 0 0 0 1 1 1 1 0 1 1 1 0 0 1 1 1 1 1 0 0 1 1 1 0 1 1 1 0 0 0 0 1 1 1 1 1 0
    1       0    1 0 1 0 0 1 0 1 1 0 1 0 0 1 0 0 1 1 1 1 1 1 0 0 1 1 0 0 0 0 0 1 1 0 1 0 1 1 1 1 1 1 1 1 1 1 0 1 0 0 1
    1       1    0 0 1 1 1 0 1 0 1 1 0 0 1 1 0 0 1 1 0 1 1 0 0 1 1
   32       2    0 1 0 0 0 0 0 1 0 1 0 1 1 0 0 0 0 0 1 1 1 0 1 0 1 0 0 1 1 1 1 1 0 0 1 1 1 0 1 1 1 0 0 0 0 1 1 1 1 1 0
    1       0    1 0 1 0 0 1 0 1 1 0 1 0 0 0 0 0 1 1 1 1 1 1 0 0 1 1 0 0 0 0 0 1 1 0 1 0 1 1 1 1 1 1 1 1 1 1 0 1 0 0 0
    1       1    0 0 1 1 1 0 1 1 1 1 0 1 1 1 0 1 1 1 0 1 1 0 0 1 1
   33       2    0 1 0 0 1 0 0 1 0 1 0 1 1 0 0 0 0 0 1 0 1 1 0 0 1 1 0 0 1 1 1 1 0 1 0 1 1 0 1 1 1 0 0 0 0 0 0 1 1 1 0
    1       0    0 0 1 0 0 1 0 0 1 0 1 0 0 0 0 1 1 1 0 1 1 1 0 1 1 1 0 0 0 0 0 0 0 0 1 0 0 1 1 0 1 1 1 1 1 1 0 1 0 1 1
    1       1    0 1 0 0 0 1 1 1 1 1 1 0 1 1 0 1 1 1 0 1 1 0 0 1 1
   34       2    0 1 0 0 1 0 0 1 0 1 0 1 1 0 0 0 0 0 1 0 1 0 1 0 1 0 1 0 1 1 0 1 1 0 1 1 1 0 1 1 1 0 0 0 0 0 1 1 1 1 0
    1       0    0 0 1 0 0 1 0 1 1 0 1 0 0 0 0 1 1 0 0 1 0 1 0 0 1 1 0 0 0 0 0 0 0 0 1 0 0 1 1 1 1 1 1 1 1 1 0 1 0 1 1
    1       1    0 1 0 0 0 1 1 0 1 1 1 1 1 1 0 1 1 0 0 1 1 0 0 1 1
   35       2    0 1 0 0 0 0 0 1 0 1 0 1 1 0 0 0 0 0 1 0 1 0 1 0 0 1 0 1 0 1 0 1 1 0 1 1 1 0 1 1 1 0 0 0 0 0 1 1 1 1 0
    1       0    1 0 1 0 0 1 0 0 1 0 0 0 0 0 0 0 1 1 0 1 1 1 0 0 1 1 0 0 0 0 0 0 0 1 1 0 1 1 1 1 1 1 1 1 1 1 0 0 0 1 1
    1       1    0 1 0 0 0 0 1 0 0 1 1 1 1 1 0 0 1 1 0 1 1 0 0 1 1
   36       2    0 1 0 0 0 0 0 1 0 1 0 0 1 0 0 1 0 0 1 1 1 1 1 0 0 0 0 0 1 1 1 1 0 0 0 1 1 0 1 1 1 0 0 0 0 0 1 1 1 1 0
    1       0    0 0 1 0 0 1 0 0 1 0 1 0 0 0 1 0 1 1 0 1 1 1 0 0 1 1 0 0 0 0 0 0 0 0 1 0 0 1 1 1 0 1 1 1 1 1 0 1 0 1 1
    1       1    0 1 0 0 0 0 1 1 1 1 1 1 1 1 0 1 1 0 0 1 1 0 0 1 1
   37       2    0 1 0 0 0 0 0 1 0 1 0 1 1 0 0 0 0 0 1 1 1 0 0 0 1 0 0 0 1 1 1 1 0 0 1 1 1 0 1 1 1 0 0 0 0 0 1 1 1 1 0
    1       0    0 0 1 0 0 1 0 0 1 0 1 0 0 1 0 1 1 1 0 1 1 1 0 0 1 1 0 0 0 0 0 0 0 0 1 0 0 1 1 1 1 1 1 1 1 1 0 1 0 1 1
    1       1    0 1 0 0 0 0 1 1 1 1 1 1 1 1 0 1 1 1 0 1 1 0 0 1 1
   38       2    0 1 0 0 0 0 0 1 0 1 0 1 1 0 0 0 0 0 1 1 1 0 1 0 1 0 0 0 1 1 1 1 0 0 1 1 1 0 1 1 1 0 0 0 0 0 1 1 1 1 0
    1       0    0 0 1 0 0 1 1 1 1 0 1 0 0 0 0 0 1 1 0 1 0 1 0 0 1 1 0 0 0 0 0 0 1 0 1 0 0 1 1 1 1 1 1 1 1 1 0 1 0 1 1
    1       1    0 1 0 0 0 0 1 1 1 1 1 1 1 1 0 1 1 0 0 1 1 0 0 1 1
   39       2    0 1 0 0 1 0 0 1 0 1 0 1 1 0 0 1 0 0 1 1 1 0 1 0 1 0 0 0 1 1 0 1 0 0 0 0 1 0 1 1 1 0 0 0 0 0 1 1 1 1 0
    1       0    0 0 1 0 0 1 0 0 1 1 1 0 0 1 0 0 1 1 0 1 1 1 0 0 1 1 0 0 0 0 0 0 0 0 1 0 0 1 1 1 0 1 1 1 1 1 0 1 0 1 1
    1       1    0 1 0 0 0 1 1 1 1 1 1 1 1 1 0 1 1 0 0 1 1 0 0 1 1
   40       2    0 1 0 0 0 0 0 1 0 1 0 1 1 0 1 0 0 0 1 0 1 0 1 0 0 0 0 1 0 1 1 1 0 0 0 1 1 0 1 1 1 0 0 0 0 1 1 1 1 1 0
    0       0    1 0 1 0 0 0 0 0 1 0 1 0 0 0 0 0 1 1 0 1 1 1 0 0 1 1 0 0 0 0 0 0 0 0 1 1 0 1 1 1 1 1 1 1 1 1 1 1 0 1 1
    1       1    0 1 0 0 1 0 1 0 1 1 1 0 1 1 0 1 1 1 0 1 1 0 0 1 1
   41       2    0 1 0 0 0 0 0 1 0 1 0 1 1 0 1 0 0 0 1 0 1 0 1 0 0 1 0 0 0 1 0 1 0 0 0 0 1 0 1 1 1 0 0 0 0 1 1 1 1 1 0
    0       0    1 0 1 0 0 1 0 0 1 1 1 0 0 1 0 0 1 1 0 1 1 1 0 0 1 1 0 0 0 0 0 0 1 0 1 0 0 1 1 0 1 1 1 1 1 1 1 1 0 0 0
    1       1    0 1 0 0 1 1 1 0 1 1 1 1 1 1 0 1 1 1 0 1 1 0 0 1 1
   42       2    0 1 0 0 0 0 0 1 0 1 0 1 1 0 1 0 0 0 1 0 1 0 1 0 0 1 0 0 0 1 0 1 0 0 0 1 1 0 1 1 1 0 0 0 0 1 1 1 1 1 0
    0       0    1 0 1 0 0 1 0 0 1 1 1 0 0 1 0 0 1 1 0 1 1 1 0 0 1 1 0 0 0 0 0 0 1 0 1 0 0 1 1 0 1 1 1 1 1 1 1 1 0 0 0
    1       1    0 1 0 0 1 1 1 0 1 1 1 1 1 1 0 1 1 1 0 1 1 0 0 1 1
   43       2    0 1 0 0 0 0 0 1 0 1 0 1 1 0 0 0 0 0 1 1 1 0 0 0 1 0 0 0 1 1 0 1 0 0 1 1 1 0 1 1 1 0 0 0 0 1 1 1 1 1 0
    1       0    0 0 1 0 0 1 0 1 1 1 1 0 1 0 0 0 0 1 0 1 0 0 0 0 1 1 0 0 0 0 0 1 1 0 1 0 0 1 1 1 1 1 1 1 1 1 0 1 0 1 1
    1       1    0 1 0 0 0 0 1 1 1 1 0 1 1 1 0 1 1 1 0 1 1 0 0 1 1
   44       2    0 1 0 0 1 0 0 1 0 1 0 1 1 0 0 0 0 0 1 1 1 0 1 0 1 1 1 0 1 1 0 0 0 0 0 1 0 0 1 1 1 0 0 1 0 0 1 1 1 1 0
    1       0    0 0 1 0 0 1 0 0 1 0 0 0 0 0 0 1 1 1 1 1 1 1 0 1 1 1 0 0 0 0 0 0 0 1 1 0 1 1 1 0 1 1 1 1 0 1 0 1 0 0 1
    1       1    1 0 0 0 0 0 1 0 1 1 1 0 1 1 0 1 1 1 0 1 1 0 0 1 1
   45       2    0 1 0 0 0 0 0 1 0 1 0 1 1 0 0 0 0 0 0 0 1 1 1 0 1 1 0 0 1 1 0 1 0 0 1 0 1 0 1 1 1 0 0 0 0 0 1 1 1 1 0
    1       0    0 0 1 0 0 1 0 0 1 0 1 0 0 0 0 1 1 1 0 1 1 1 0 0 1 1 0 0 0 0 0 0 0 0 1 0 0 1 1 0 1 1 1 1 1 1 0 1 1 1 1
    1       1    0 1 0 0 0 0 1 0 1 1 1 0 1 0 0 1 1 1 0 1 1 0 0 1 1
   46       2    0 1 0 0 0 0 0 1 0 1 0 1 1 0 0 0 1 0 1 0 1 1 1 0 1 0 0 0 1 1 0 1 0 0 1 1 1 0 1 1 1 0 0 0 0 0 1 1 1 1 0
    1       0    0 0 1 0 0 1 0 1 0 0 1 0 1 0 0 0 1 1 0 1 0 1 0 0 1 1 0 0 0 0 0 0 1 0 1 0 0 1 1 0 1 1 1 1 1 1 0 1 1 1 1
    1       1    0 1 0 0 0 0 1 0 1 1 0 0 1 1 0 1 1 1 0 1 1 0 0 1 1
   47       2    0 1 0 0 0 0 0 1 0 1 0 1 1 0 0 0 0 0 0 0 1 0 1 0 1 1 1 0 0 1 1 1 1 0 0 0 1 0 1 1 1 0 1 0 0 0 0 1 1 1 0
    0       0    1 0 1 0 0 1 0 1 1 0 1 0 0 1 0 0 1 1 1 1 1 1 0 0 1 1 0 0 0 0 0 0 1 0 1 0 0 1 1 0 1 1 1 1 1 1 1 1 0 0 0
    1       1    0 1 0 0 0 0 1 0 1 1 1 1 1 1 0 1 1 1 0 1 1 0 0 1 1
   48       2    0 1 0 0 0 0 0 1 0 1 0 1 1 0 0 0 0 0 1 0 1 0 1 0 0 1 0 0 1 1 0 1 0 0 0 1 1 0 1 1 1 0 0 0 0 1 1 1 1 1 0
    0       0    1 0 1 0 0 1 0 0 1 1 1 0 0 1 0 0 1 1 0 1 1 1 0 0 1 1 0 0 0 0 0 0 1 0 1 0 0 1 1 0 1 1 1 1 1 1 1 1 0 0 1
    1       1    0 1 0 0 1 1 1 0 1 1 1 1 1 1 0 1 1 1 0 1 1 0 0 1 1
   49       2    0 1 0 0 0 0 0 1 0 1 0 1 1 0 0 0 0 0 1 0 1 0 1 0 0 1 0 0 1 1 0 1 0 0 0 1 1 0 1 1 1 0 0 0 0 1 1 1 1 1 0
    0       0    1 0 1 0 0 1 0 0 1 1 1 0 0 1 0 0 1 1 0 1 1 1 0 0 1 1 0 0 0 0 0 1 1 0 1 0 0 1 1 1 1 1 1 1 1 1 1 1 0 0 1
    1       1    0 1 0 0 1 1 1 0 1 1 1 1 1 1 0 1 1 1 0 1 1 0 0 1 1
   50       2    0 1 0 0 0 0 0 1 0 1 0 1 1 0 0 0 0 0 1 0 1 0 1 0 0 1 0 0 1 1 0 1 0 0 0 0 1 0 1 1 1 0 0 0 0 1 1 1 1 1 0
    0       0    1 0 1 0 0 1 0 0 1 1 0 0 0 1 0 0 0 1 0 1 1 1 0 0 1 1 0 0 0 0 0 1 1 0 1 0 0 1 1 1 1 1 1 1 1 1 1 1 0 0 1
    1       1    0 1 0 0 1 1 1 0 1 1 1 1 1 1 0 1 1 1 0 1 1 0 0 1 1
   51       2    0 1 0 0 0 0 0 1 0 1 0 1 1 0 0 0 0 0 1 0 1 0 1 0 1 1 0 0 1 1 0 1 0 0 0 0 1 0 1 1 1 0 0 0 0 1 1 1 1 1 0
    0       0    1 0 1 0 0 1 0 0 1 1 1 0 0 1 0 0 1 1 0 1 1 1 0 0 1 1 0 0 0 0 0 0 1 0 1 0 0 0 1 0 1 1 1 1 1 1 1 1 0 0 1
    1       1    0 1 0 0 1 1 1 0 1 1 1 1 1 1 0 1 1 1 0 1 1 0 0 1 1
   52       2    0 1 0 0 0 0 0 1 0 1 0 1 1 0 0 0 0 0 1 0 1 1 1 0 1 1 0 0 1 1 0 1 0 0 1 1 1 0 1 1 1 0 0 0 0 0 1 1 1 1 0
    1       0    0 0 1 0 0 1 0 0 1 1 1 0 0 0 0 1 1 1 0 1 1 1 0 0 1 1 0 0 0 0 0 0 1 0 1 0 0 1 1 0 1 1 1 1 1 1 0 1 0 1 1
    1       1    0 1 0 0 0 1 1 0 1 1 1 0 1 1 0 1 1 1 0 1 1 0 0 1 1
   53       2    0 1 0 0 0 0 0 1 0 1 0 1 1 0 0 0 0 0 1 0 1 1 1 0 1 1 0 0 1 1 0 1 0 0 1 1 1 0 1 1 1 0 0 0 0 0 1 1 1 1 0
    1       0    0 0 1 0 0 1 0 0 1 1 1 0 0 0 0 1 1 1 0 1 1 0 0 0 1 1 0 0 0 0 0 0 1 0 1 0 0 1 1 0 1 1 1 1 1 1 0 1 0 1 1
    1       1    0 1 0 0 0 1 1 0 1 1 1 0 1 1 0 1 1 1 0 1 1 0 0 1 1
   54       2    0 1 0 0 0 0 0 1 0 1 0 1 0 0 0 0 0 0 1 0 1 1 1 0 0 1 0 0 1 1 0 1 0 0 1 0 1 0 1 1 1 0 0 0 0 0 1 1 1 1 0
    1       0    0 0 1 0 0 1 0 0 1 0 1 0 0 0 0 1 1 1 0 0 1 1 0 0 1 1 0 0 0 0 0 0 0 0 1 0 0 1 1 0 1 1 1 1 1 1 0 1 0 1 1
    1       1    0 1 0 0 0 1 1 0 1 1 1 0 1 0 0 1 1 1 0 1 1 0 0 1 1
   8800000.00000000        1618033.00000000       0.000000000000000E+000
  1.136363636363636E-007   4139747.00000000        6524285.00000000     
           1          29           5
   5284377.00000000        5415968.00000000        2656852.00000000     
   5952498.00000000        6309962.00000000        5781667.00000000     
   4965727.00000000        6925995.00000000        3302534.00000000     
   4539016.00000000        4935896.00000000        3076962.00000000     
   2775941.00000000        65184.0000000000        7142465.00000000     
   7077625.00000000        4628661.00000000        6322938.00000000     
   6405695.00000000        4336167.00000000        2229141.00000000     
   3917275.00000000        3571608.00000000        8219737.00000000     
   8450000.00000000        6017741.00000000        5321513.00000000     
   7197237.00000000        4139747.00000000        5824370.00000000     
   1961699.00000000        1830803.00000000        3607965.00000000     
   2231561.00000000        4245511.00000000        2889522.00000000     
   7200561.00000000        526896.000000000        6743634.00000000     
   8371751.00000000        1830145.00000000        2861079.00000000     
   3741726.00000000        471123.000000000        5914928.00000000     
   4975575.00000000        716714.000000000        4880737.00000000     
   6974003.00000000        4294778.00000000        7172678.00000000     
   2382594.00000000        1686572.00000000        4622346.00000000     
   7749853.00000000     
   8800000.00000000        1618033.00000000       0.000000000000000E+000
  1.136363636363636E-007   7125841.00000000        1667309.00000000     
           1          29           5
   2826635.00000000        7758742.00000000        8101114.00000000     
   861386.000000000        232400.000000000        6601191.00000000     
   7173141.00000000        2843291.00000000        2377832.00000000     
   3337272.00000000        2581206.00000000        5001082.00000000     
   2447915.00000000        468868.000000000        4675769.00000000     
   1347813.00000000        1208975.00000000        4078216.00000000     
   6413225.00000000        3376837.00000000        32041.0000000000     
   3636567.00000000        5428186.00000000        6472131.00000000     
   5596030.00000000        1661737.00000000        2466465.00000000     
   757553.000000000        7125841.00000000        3632470.00000000     
   1748323.00000000        5713073.00000000        8065197.00000000     
   3480901.00000000        7171373.00000000        7612310.00000000     
   4254319.00000000        7470634.00000000        7252252.00000000     
   4288195.00000000        5262471.00000000        1495961.00000000     
   5097432.00000000        49207.0000000000        2053082.00000000     
   5006929.00000000        5104012.00000000        916443.000000000     
   6174531.00000000        1799554.00000000        2236854.00000000     
   8340368.00000000        7298160.00000000        2108008.00000000     
   5977415.00000000     
   8800000.00000000        1618033.00000000       0.000000000000000E+000
  1.136363636363636E-007   4426349.00000000        2512077.00000000     
           1          29           5
   697391.000000000        4483010.00000000        2788998.00000000     
   711802.000000000        8453916.00000000        1118959.00000000     
   4445889.00000000        8368763.00000000        485868.000000000     
   8173464.00000000        4388626.00000000        5962922.00000000     
   7206583.00000000        6199756.00000000        6819497.00000000     
   384829.000000000        3339523.00000000        3280612.00000000     
   4026685.00000000        7955777.00000000        8549841.00000000     
   4072911.00000000        2897182.00000000        7569239.00000000     
   4766490.00000000        6016609.00000000        4918929.00000000     
   74665.0000000000        4426349.00000000        416670.000000000     
   5288291.00000000        2823213.00000000        5020621.00000000     
   8414781.00000000        4470457.00000000        8482526.00000000     
   1868075.00000000        3798750.00000000        4316528.00000000     
   1697403.00000000        1416403.00000000        5998685.00000000     
   6784524.00000000        1760895.00000000        1814510.00000000     
   7050757.00000000        5196048.00000000        7163535.00000000     
   7587427.00000000        6634386.00000000        3022486.00000000     
   5894636.00000000        3609976.00000000        7470692.00000000     
   6055899.00000000     
