          57          54   1.00000000000000     
    1       2    1 0 0 1 0 0 0 1 0 0 1 1 0 0 0 0 1 1 0 0 1 1 1 0 0 0 0 0 0 0 0 1 0 1 0 0 0 0 1 0 1 1 1 1 1 1 0 1 1 1 0
    1       0    1 0 0 0 0 1 0 0 0 0 1 0 0 0 0 0 1 1 0 1 1 1 0 0 1 1 0 0 0 0 0 0 0 1 0 1 0 1 0 0 1 1 1 1 0 1 0 0 0 1 1
    1       1    1 1 0 1 0 0 0 0 0 0 1 1 1 1 0 1 1 1 0 1 1 0 0 1 1
    2       2    1 0 0 1 0 0 0 1 0 0 1 1 0 1 0 0 0 1 0 0 0 1 1 0 0 0 0 0 0 0 0 1 0 1 0 0 0 0 1 0 1 1 1 1 1 1 0 1 1 1 0
    1       0    1 0 0 0 0 1 0 0 0 0 1 0 0 0 0 0 1 1 0 1 1 1 0 0 1 1 0 0 0 0 0 0 1 1 0 1 0 1 0 0 1 1 1 1 0 1 0 0 0 1 1
    1       1    1 1 0 1 0 0 0 0 0 1 1 0 1 1 0 1 1 1 0 1 1 0 0 1 1
    3       2    1 0 0 1 0 0 0 1 0 0 1 1 0 0 0 0 1 1 1 0 1 1 1 0 0 1 0 0 0 0 0 1 0 0 0 0 0 0 1 0 1 1 1 1 1 1 0 1 1 1 0
    1       0    0 0 0 0 0 1 0 0 0 1 1 0 0 0 0 0 1 1 0 1 1 1 0 0 1 1 0 0 0 0 0 0 1 1 0 1 0 1 0 0 1 1 1 1 0 1 0 0 0 1 1
    1       1    1 1 0 1 1 0 0 0 0 1 1 0 1 0 1 0 1 0 0 1 1 0 0 1 1
    4       2    1 0 0 1 0 0 0 1 0 0 1 1 0 0 0 0 1 1 0 1 1 1 1 0 0 0 1 0 0 0 0 1 0 1 0 0 1 0 1 0 1 1 1 1 1 1 0 1 1 1 0
    1       0    1 0 1 0 0 1 0 0 0 0 1 1 0 1 0 0 1 1 0 0 1 0 0 1 1 1 0 0 0 0 0 0 1 1 0 1 0 1 0 0 1 1 1 1 0 1 0 0 1 0 1
    1       1    1 1 0 0 1 1 0 0 0 1 1 1 0 1 1 1 1 1 0 1 1 0 0 1 1
    5       2    1 0 0 1 0 0 0 1 0 0 1 1 0 0 0 0 1 1 1 1 1 1 1 0 0 0 1 0 0 0 0 1 0 1 0 0 1 0 1 0 1 1 1 1 1 0 0 1 1 1 0
    1       0    1 0 1 0 0 1 0 0 0 0 1 1 1 0 0 0 1 1 0 0 1 0 0 1 1 1 0 0 0 0 0 0 1 1 0 1 0 1 0 1 1 1 1 1 0 1 0 0 1 1 1
    1       1    1 1 0 0 1 1 0 0 0 1 1 0 0 1 1 0 1 1 0 1 1 0 0 1 1
    6       2    1 0 0 1 0 0 0 1 0 0 1 1 0 0 0 0 1 1 1 1 1 1 1 0 0 0 0 1 0 0 0 1 0 0 0 0 1 0 1 0 1 1 1 1 1 0 0 1 1 1 0
    1       0    1 0 1 0 0 1 0 0 0 0 1 0 1 0 0 0 1 0 0 0 1 0 0 1 1 1 0 0 0 0 0 0 1 1 0 1 0 1 0 1 1 1 1 1 0 1 0 0 1 1 1
    1       1    1 1 0 0 1 1 0 0 0 1 1 1 0 1 1 0 1 0 0 1 1 0 0 1 1
    7       2    1 0 0 1 0 0 0 1 0 0 1 1 0 0 0 0 1 1 1 1 1 1 1 0 0 0 1 0 0 0 0 1 0 1 0 0 1 0 1 0 1 1 1 1 1 0 0 1 1 1 0
    1       0    1 0 1 0 0 1 0 0 0 0 1 1 1 0 0 0 1 1 0 0 1 0 0 1 1 1 0 0 0 0 0 0 1 1 0 1 0 1 0 1 1 1 1 1 0 1 0 0 1 1 1
    1       1    1 1 0 0 1 1 0 0 0 1 1 0 0 1 1 0 1 1 0 1 1 0 0 1 1
    8       2    1 0 0 1 0 0 0 1 0 0 1 1 0 0 0 0 1 1 1 1 1 1 1 0 0 0 1 0 0 0 0 1 0 1 0 0 1 0 1 0 1 1 1 1 1 0 0 1 1 1 0
    1       0    1 0 1 0 0 1 0 0 0 0 1 1 1 0 0 0 1 1 0 0 1 1 0 1 1 1 0 0 0 0 0 0 1 1 0 1 0 1 0 1 1 1 1 1 0 1 0 0 1 1 1
    1       1    1 1 0 0 1 1 0 0 0 1 1 0 0 1 1 0 1 1 0 1 1 0 0 1 1
    9       2    1 0 0 1 0 0 0 1 0 0 1 1 0 0 0 0 1 1 1 1 1 1 1 0 0 0 1 0 0 0 0 1 0 1 0 0 1 0 1 0 1 1 1 1 1 0 0 1 1 1 0
    1       0    1 0 1 0 0 1 0 0 0 0 1 1 1 0 0 0 1 1 0 0 1 0 0 1 1 1 0 0 0 0 0 0 1 1 0 1 0 1 0 1 1 1 1 1 0 1 0 0 1 1 1
    1       1    1 1 0 0 1 1 0 0 0 1 1 0 0 1 1 0 1 1 0 1 1 0 0 1 1
   10       2    1 0 0 1 0 0 0 1 0 0 1 1 0 0 0 0 1 1 1 1 1 1 1 0 0 0 1 0 0 0 0 1 0 1 0 0 1 0 1 0 1 1 1 1 1 0 0 1 1 1 0
    1       0    1 0 1 0 0 1 0 0 0 0 1 1 1 0 0 0 1 1 0 0 1 1 0 1 1 1 0 0 0 0 0 0 1 1 0 1 0 1 0 1 1 1 1 1 0 1 0 0 1 1 1
    1       1    1 1 0 0 1 1 0 0 0 1 1 0 0 1 0 0 1 1 0 1 1 0 0 1 1
   11       2    1 0 0 1 0 0 0 1 0 0 1 1 1 0 0 0 1 1 1 1 1 1 1 0 0 0 1 0 0 0 0 1 0 1 0 0 1 0 1 0 1 1 1 1 1 0 0 1 1 1 0
    1       0    1 0 1 0 0 1 0 0 0 0 1 1 0 0 0 0 1 1 0 0 1 1 0 1 1 1 0 0 0 0 0 0 1 1 0 1 0 1 0 0 1 1 1 1 0 1 0 0 1 1 1
    1       1    1 1 0 0 1 1 0 0 0 1 1 0 0 1 1 0 1 1 0 1 1 0 0 1 1
   12       2    1 0 0 1 0 0 0 1 0 0 1 1 1 0 0 0 1 1 1 1 1 1 1 0 0 0 1 0 0 0 0 1 0 1 0 0 1 0 1 0 1 1 1 1 1 0 0 1 1 1 0
    1       0    1 0 1 0 0 1 0 0 0 0 1 1 0 0 0 0 1 1 0 0 1 1 0 1 1 1 0 0 0 0 0 0 1 1 0 1 0 1 0 0 1 1 1 1 0 1 0 0 1 1 1
    1       1    1 1 0 0 1 1 0 0 0 1 1 0 0 1 1 0 1 1 0 1 1 0 0 1 1
   13       2    1 0 0 1 0 0 0 1 0 0 1 1 0 0 0 0 1 1 1 1 1 1 1 0 0 0 1 0 0 0 0 1 0 1 0 1 1 0 1 0 1 1 1 1 1 0 0 1 1 1 0
    1       0    1 0 1 0 0 1 0 0 0 0 1 1 1 0 0 0 1 1 0 0 1 1 0 1 1 1 0 0 0 0 0 0 1 1 0 1 0 1 0 1 1 1 1 1 0 1 0 0 1 1 1
    1       1    1 1 0 0 1 1 0 0 0 1 1 0 0 1 1 0 1 0 0 1 1 0 0 1 1
   14       2    1 0 0 1 0 0 0 1 0 0 1 1 1 0 0 0 1 1 1 1 1 1 1 0 0 0 1 0 0 0 0 1 0 1 0 0 1 0 1 0 1 1 1 1 1 0 0 1 1 1 0
    1       0    1 0 1 0 0 1 0 0 0 0 1 1 1 0 0 0 1 1 0 0 0 1 0 1 1 1 0 0 0 0 0 0 1 1 0 1 0 1 0 0 1 1 1 1 0 1 0 0 1 1 1
    1       1    1 1 0 0 1 1 0 0 0 0 1 0 0 1 1 0 1 1 0 1 1 0 0 1 1
   15       2    1 0 0 1 0 0 0 1 0 0 1 1 0 0 0 0 1 1 1 1 1 1 1 0 0 0 1 0 0 0 0 1 0 1 0 0 1 0 1 0 1 1 1 1 1 0 0 1 1 1 0
    1       0    1 0 1 0 0 1 0 0 0 0 1 1 1 0 0 0 1 1 0 0 1 0 0 1 1 1 0 0 0 0 0 0 1 1 0 1 0 1 0 1 1 1 1 1 0 1 0 0 1 1 1
    1       1    1 1 0 0 1 1 0 0 0 1 1 0 0 1 1 0 1 1 0 1 1 0 0 1 1
   16       2    1 0 0 1 0 0 0 1 0 0 1 1 0 0 0 0 1 1 1 1 1 1 1 0 0 0 1 0 0 0 0 1 0 1 0 0 1 0 1 0 1 1 1 1 1 0 0 1 1 1 0
    1       0    1 0 1 0 0 1 0 0 0 0 1 1 1 0 0 0 1 1 0 0 1 0 0 1 1 1 0 0 0 0 0 0 1 1 0 1 0 1 0 1 1 1 1 1 0 1 0 0 1 1 1
    1       1    1 1 0 0 1 1 0 0 0 1 1 0 0 1 1 0 1 1 0 1 1 0 0 1 1
   17       2    1 0 0 1 0 0 0 1 0 0 1 1 0 0 0 0 1 1 1 1 1 1 1 0 0 0 1 0 0 0 0 1 0 1 0 0 1 0 1 0 1 1 1 1 1 0 0 1 1 1 0
    1       0    1 0 1 0 0 1 0 0 0 0 1 1 1 0 0 0 1 1 1 0 1 1 0 1 1 1 0 0 0 0 0 0 1 1 0 1 0 1 0 1 1 1 1 1 0 1 0 0 1 1 1
    1       1    1 1 0 0 1 1 0 0 0 1 1 0 0 1 1 0 1 1 0 1 1 0 0 1 1
   18       2    1 0 0 1 0 0 0 1 0 0 1 1 0 0 0 0 1 1 1 1 1 1 1 0 0 0 1 0 0 0 0 1 0 1 0 0 1 0 1 0 1 1 1 1 1 0 0 1 1 1 0
    1       0    1 0 1 0 0 1 0 0 0 0 1 1 1 0 0 0 1 1 0 0 1 0 0 0 1 1 0 0 0 0 0 0 1 1 0 0 0 1 0 1 1 1 1 1 0 1 0 0 1 1 1
    1       1    1 1 0 0 1 1 0 0 0 1 1 0 0 1 1 0 1 1 0 1 1 0 0 1 1
   19       2    1 0 0 1 0 0 0 1 0 0 1 1 0 0 0 0 1 1 1 1 1 1 1 0 0 0 1 0 0 0 0 1 0 1 0 0 1 0 1 0 1 1 1 1 1 0 0 1 1 1 0
    1       0    1 0 1 0 0 1 0 0 0 0 0 1 1 0 0 0 1 1 0 0 1 1 0 1 1 1 0 0 0 0 0 0 1 1 0 1 0 1 0 1 1 1 1 1 0 1 0 0 1 1 1
    1       1    1 1 0 0 1 1 0 0 0 1 1 0 0 1 1 0 1 1 0 1 1 0 0 1 1
   20       2    1 0 0 1 0 0 0 1 0 0 1 1 0 0 0 0 1 0 1 1 1 1 1 0 0 0 1 0 0 0 0 1 0 1 0 0 1 0 1 0 1 1 1 1 1 0 0 1 1 1 0
    1       0    1 0 1 0 0 1 0 0 0 0 1 1 1 0 0 0 1 1 0 0 1 0 0 1 1 1 0 0 0 0 0 0 1 1 0 1 0 1 0 1 1 1 1 1 0 1 0 0 1 1 1
    1       1    1 1 0 0 1 1 0 0 0 1 1 0 0 1 1 0 1 1 0 1 1 0 0 1 1
   21       2    1 0 0 1 0 0 0 1 0 0 1 1 1 0 0 0 1 1 1 1 1 1 1 0 0 0 1 0 0 0 0 1 0 1 0 0 1 0 1 0 1 1 1 1 1 0 0 1 1 1 0
    1       0    1 0 1 0 0 1 0 0 0 0 1 1 0 0 0 0 1 1 0 0 1 1 0 1 1 1 0 0 0 0 0 0 1 1 0 1 0 1 0 0 1 1 1 1 0 1 0 0 1 1 1
    1       1    1 1 0 0 1 1 0 0 0 1 1 0 0 1 1 0 1 1 0 1 1 0 0 1 1
   22       2    1 0 0 1 0 0 0 1 0 0 1 1 1 0 0 0 1 1 1 1 1 1 1 0 0 0 1 0 0 0 0 1 0 1 0 0 1 0 1 0 1 1 1 1 1 0 0 1 1 1 0
    1       0    1 0 1 0 0 1 0 0 0 0 1 1 0 0 0 0 1 1 0 0 1 1 1 1 1 1 0 0 0 0 0 0 1 1 0 1 0 1 0 0 1 1 1 1 0 1 0 0 1 1 1
    1       1    1 1 0 0 1 1 0 0 0 1 1 0 0 1 1 0 1 1 0 1 1 0 0 1 1
   23       2    1 0 0 1 0 0 0 1 0 0 1 1 0 0 0 0 1 1 1 1 1 1 1 0 0 0 1 0 0 0 0 1 0 1 0 0 1 0 1 0 1 1 1 1 1 0 0 1 1 1 0
    1       0    1 0 1 0 0 1 0 0 0 0 1 1 1 0 1 0 1 1 0 0 1 0 0 1 1 1 0 0 0 0 0 0 1 1 0 1 0 1 0 1 1 1 1 1 0 1 0 0 1 1 1
    1       1    1 1 0 0 1 1 0 0 0 1 1 0 0 1 1 0 1 1 0 1 1 0 0 1 1
   24       2    1 0 0 1 0 0 0 1 0 0 1 1 0 0 0 0 1 1 1 1 1 1 1 0 0 0 1 0 0 0 0 1 0 1 0 0 1 0 1 0 1 1 1 1 1 0 0 1 1 1 0
    1       0    1 0 1 0 0 1 0 0 0 0 1 1 1 0 0 0 1 1 0 0 1 0 0 1 1 1 0 0 0 0 0 0 1 1 0 0 0 1 0 1 1 1 1 1 0 1 0 0 1 1 1
    1       1    1 1 0 0 1 1 0 0 0 1 1 0 0 1 1 0 1 1 0 1 1 0 0 1 1
   25       2    1 0 0 1 0 0 0 1 0 0 1 1 0 0 0 0 1 1 1 1 1 1 1 0 0 0 1 1 0 0 0 1 0 1 0 0 1 0 1 0 1 1 1 1 1 0 0 1 1 1 0
    1       0    1 0 1 0 0 1 0 0 0 0 1 1 1 0 0 0 1 1 0 0 1 1 0 1 1 1 0 0 0 0 0 0 1 1 0 1 1 1 0 0 1 1 1 1 0 1 0 0 1 1 1
    1       1    1 1 0 0 1 1 0 0 0 1 1 0 0 1 1 0 1 1 0 1 1 0 0 1 1
   26       2    1 0 0 1 0 0 0 1 0 0 1 1 0 0 0 0 1 1 1 1 1 1 1 0 0 0 1 0 0 0 0 1 0 1 0 0 1 0 1 0 1 1 1 1 1 0 0 1 1 1 0
    1       0    1 0 1 0 0 1 0 0 0 0 1 1 0 0 0 0 1 1 0 0 1 1 0 1 1 1 0 0 0 0 0 0 1 1 0 1 0 1 0 1 1 1 1 1 0 1 0 0 1 1 1
    1       1    1 1 0 0 1 1 0 0 0 1 1 0 0 1 1 0 1 1 0 1 1 0 0 1 1
   27       2    1 0 0 1 0 0 0 1 0 0 1 1 0 0 0 1 1 1 1 1 1 1 1 0 0 0 1 0 0 0 0 1 0 1 0 0 1 0 1 0 1 1 1 1 1 0 0 1 1 1 0
    1       0    1 0 1 0 0 1 0 0 0 0 1 1 1 0 0 0 0 1 0 1 1 1 0 0 1 1 0 0 0 0 0 0 1 1 0 1 0 1 0 0 1 1 1 1 0 1 0 0 1 1 1
    1       1    1 1 0 0 1 1 0 0 0 1 1 0 0 1 1 0 1 1 0 1 1 0 0 1 1
   28       2    1 0 0 1 0 0 0 1 0 0 1 1 0 0 0 0 1 1 1 1 1 1 1 0 1 0 1 1 0 0 0 1 0 1 0 1 1 0 1 0 1 1 1 1 1 0 0 1 1 1 0
    1       0    1 0 1 0 0 1 0 0 0 0 1 1 1 0 0 0 1 1 0 0 1 1 0 1 1 1 0 0 0 0 0 0 1 1 0 1 0 1 0 1 1 1 1 1 0 1 0 0 1 1 1
    1       1    1 1 0 0 1 1 0 0 0 1 1 0 0 1 1 0 1 0 0 1 1 0 0 1 1
   29       2    1 0 0 1 0 0 0 1 0 0 1 1 0 0 0 0 1 1 1 1 1 1 1 0 0 0 1 1 0 0 0 1 0 0 0 1 1 0 1 0 1 1 1 1 1 0 0 1 1 1 0
    1       0    1 0 1 0 0 1 0 0 0 0 1 0 1 0 0 0 1 1 0 0 1 1 0 1 1 1 0 0 0 0 0 0 1 1 0 1 0 1 0 1 1 1 1 1 0 1 0 0 1 1 1
    1       1    1 1 0 0 1 1 0 0 0 1 1 1 0 1 1 0 1 0 0 1 1 0 0 1 1
   30       2    1 0 0 1 0 0 0 1 0 0 1 1 0 0 0 0 1 1 1 1 1 1 1 0 0 0 1 0 0 0 0 1 0 1 0 0 1 0 1 0 1 1 1 1 1 0 0 1 1 1 0
    1       0    1 0 1 0 0 1 0 0 0 0 1 1 0 0 0 0 1 1 0 0 1 1 0 1 1 1 0 0 0 0 0 0 1 1 0 1 0 1 0 1 1 1 1 1 0 1 0 0 1 1 1
    1       1    1 1 0 0 1 1 0 0 0 1 1 0 0 1 0 0 1 1 0 1 1 0 0 1 1
   31       2    1 0 0 1 0 0 0 1 0 0 1 1 0 0 0 0 1 1 0 0 1 1 1 0 0 1 0 0 0 0 0 1 0 1 0 0 0 0 1 0 1 1 1 1 1 0 0 1 1 1 0
    1       0    1 0 1 0 0 1 0 0 0 1 1 1 0 0 0 0 1 1 0 1 1 1 0 0 1 1 0 0 0 0 0 0 1 1 0 1 0 1 0 0 1 1 1 1 0 1 0 0 0 1 1
    1       1    1 1 0 1 0 0 0 0 0 0 1 0 1 1 0 0 1 0 0 1 1 0 0 1 1
   32       2    1 0 0 1 0 0 0 1 0 0 1 1 0 0 0 0 1 1 0 0 1 1 1 0 0 1 0 0 0 0 0 1 1 0 0 0 0 0 1 0 1 1 1 1 1 0 0 1 1 1 0
    1       0    1 0 1 0 0 1 0 0 0 1 1 1 0 0 0 0 1 1 0 1 1 1 0 0 1 1 0 0 0 0 0 0 1 1 0 1 0 1 0 0 1 1 1 1 0 1 0 0 0 1 1
    1       1    1 1 0 1 0 0 0 0 0 0 1 0 1 0 1 0 1 0 0 1 1 0 0 1 1
   33       2    1 0 0 1 0 0 0 1 0 0 1 1 0 1 0 0 1 1 0 0 1 1 1 0 0 1 0 0 0 0 0 1 0 1 0 0 0 0 1 0 1 1 1 1 1 0 0 1 1 1 0
    1       0    1 0 1 0 0 1 0 0 0 0 1 0 0 0 0 0 1 1 0 1 1 1 0 0 1 1 0 0 0 0 0 0 1 1 0 1 0 1 0 0 1 1 1 1 0 1 0 0 0 1 1
    1       1    1 1 0 1 0 0 0 0 0 1 1 0 1 0 1 0 1 0 0 1 1 0 0 1 1
   34       2    1 0 0 1 0 0 0 1 0 0 1 1 0 0 0 0 1 1 0 0 1 1 1 0 1 1 0 0 0 0 0 1 0 0 0 0 0 0 1 0 1 1 1 1 1 0 0 1 1 1 0
    1       0    1 0 1 0 0 1 0 0 0 1 1 0 0 0 0 0 1 1 0 1 1 1 0 0 1 1 0 0 0 0 0 0 1 1 0 1 0 1 0 0 1 1 1 1 0 1 0 0 0 1 1
    1       1    1 1 0 1 0 0 0 0 0 1 1 0 1 1 1 0 1 0 0 1 1 0 0 1 1
   35       2    1 0 0 1 0 0 0 1 0 0 1 1 0 0 0 0 1 1 0 0 1 1 1 0 0 1 0 0 0 0 0 1 0 1 0 0 0 0 1 0 1 1 1 1 1 0 0 1 1 1 0
    1       0    1 0 1 0 0 1 0 0 0 0 1 0 0 0 0 0 1 1 0 1 1 1 0 0 1 1 0 0 0 0 0 0 0 1 0 1 0 1 0 0 1 1 1 1 0 1 0 0 0 1 1
    1       1    1 1 0 1 0 0 0 0 0 0 1 1 1 0 1 0 1 0 0 1 1 0 0 1 1
   36       2    1 0 0 1 0 0 0 1 0 0 1 1 1 0 0 0 1 0 1 0 1 1 1 0 0 0 1 0 1 1 0 1 1 1 1 0 0 0 1 0 1 1 1 1 1 1 1 1 1 1 0
    1       0    0 0 1 0 1 1 0 0 0 0 1 1 0 0 0 1 1 1 0 1 1 0 1 1 1 1 0 0 0 0 0 0 1 1 1 1 0 0 0 0 1 1 1 1 0 1 0 0 0 0 1
    1       1    1 1 0 1 1 0 0 0 0 1 1 0 1 0 1 0 1 0 0 1 1 0 0 1 1
   37       2    1 0 0 1 0 0 0 1 0 0 1 1 0 0 0 0 1 1 1 1 1 1 1 0 0 0 1 0 0 0 0 1 0 1 1 0 1 0 1 0 1 1 1 1 1 1 1 1 1 1 0
    1       0    1 0 1 0 0 1 0 0 0 0 1 1 0 1 0 0 1 1 0 0 1 0 0 0 1 1 0 0 0 0 0 0 1 1 0 1 0 1 0 0 1 1 1 1 0 1 0 0 1 0 1
    1       1    1 1 0 0 1 1 0 0 0 1 1 0 0 1 1 1 1 1 0 1 1 0 0 1 1
   38       2    1 0 0 1 0 0 0 1 0 0 1 1 0 0 0 0 1 1 1 0 1 1 0 0 1 0 0 0 1 0 0 0 1 1 0 0 0 0 1 0 1 1 1 1 1 0 0 1 1 1 0
    1       0    0 0 1 0 1 1 0 0 0 0 1 1 0 0 1 0 0 1 0 1 1 1 0 0 1 1 0 0 0 0 0 0 1 1 0 1 1 1 0 0 1 1 1 1 0 1 0 0 0 0 0
    1       1    1 1 0 1 1 1 0 0 0 1 1 0 1 1 1 0 1 0 0 1 1 0 0 1 1
   39       2    1 0 0 1 0 0 0 1 0 0 1 1 1 0 0 0 1 1 1 1 1 1 1 0 0 0 1 0 0 0 0 1 0 1 0 0 1 0 1 0 1 1 1 1 1 0 1 1 1 1 0
    1       0    1 0 1 0 0 1 0 0 0 0 1 1 0 0 0 0 1 1 0 0 1 1 0 1 1 1 0 0 0 0 0 0 1 1 0 1 0 1 0 0 1 1 1 1 0 1 0 0 1 1 1
    1       1    1 1 0 0 1 1 0 0 0 1 1 0 0 1 1 0 1 1 0 1 1 0 0 1 1
   40       2    1 0 0 1 0 0 0 1 0 0 1 1 1 0 0 0 1 1 1 1 1 1 1 0 0 0 1 0 0 0 0 0 0 1 0 0 1 0 1 0 1 1 1 1 1 0 1 1 1 1 0
    1       0    1 0 1 0 0 1 0 0 0 0 1 1 1 0 0 0 1 1 0 0 1 1 0 1 1 1 0 0 0 0 0 0 1 1 0 1 0 1 0 0 1 1 1 1 0 1 0 0 1 1 1
    1       1    1 1 0 0 1 1 0 0 0 0 1 0 0 1 1 0 1 1 0 1 1 0 0 1 1
   41       2    1 0 0 1 0 0 0 1 0 0 1 1 1 0 0 0 1 1 1 1 1 1 1 1 0 0 1 0 0 0 0 0 0 1 0 0 1 0 1 0 1 1 1 1 1 0 1 1 1 1 0
    1       0    1 0 1 0 0 1 0 0 0 0 1 1 0 0 0 0 1 1 0 0 1 1 0 1 1 1 0 0 0 0 0 0 1 1 0 1 0 1 0 0 1 1 1 1 0 1 0 0 1 1 1
    1       1    1 1 0 0 1 1 0 0 0 1 1 0 0 1 1 0 1 1 0 1 1 0 0 1 1
   42       2    1 0 0 1 0 0 0 1 0 0 1 1 1 0 0 1 1 1 1 1 1 1 1 0 0 0 1 0 0 0 0 1 0 1 0 0 1 0 1 0 1 1 1 1 1 0 1 1 1 1 0
    1       0    1 0 1 0 0 1 0 0 0 0 1 0 0 0 0 0 1 1 0 1 1 1 0 1 1 1 0 0 0 0 0 0 1 1 0 1 0 1 0 0 0 1 1 1 0 1 0 0 1 1 1
    1       1    1 1 0 0 1 1 0 0 0 1 1 0 0 1 1 0 1 1 0 1 1 0 0 1 1
   43       2    1 0 0 1 0 0 0 1 0 0 1 1 1 0 0 0 1 1 1 1 0 1 1 0 0 0 1 0 0 0 0 0 0 1 0 0 1 0 1 0 1 1 1 1 1 0 1 1 1 1 0
    1       0    1 0 1 0 0 1 0 0 0 0 1 1 1 0 0 0 1 1 0 0 1 1 0 1 1 1 0 0 0 0 0 0 1 1 0 1 0 1 0 0 1 1 1 1 0 1 0 0 1 1 1
    1       1    1 1 0 0 1 1 0 0 0 0 1 0 0 1 1 0 1 0 0 1 1 0 0 1 1
   44       2    1 0 0 1 0 0 0 1 0 0 1 1 1 0 0 0 1 1 1 1 1 1 1 0 0 0 1 0 0 0 0 1 0 1 0 0 1 0 1 0 1 1 1 1 1 0 1 1 1 1 0
    1       0    1 0 1 0 0 1 0 0 0 0 1 0 0 0 0 0 1 1 0 1 1 0 0 1 1 1 0 0 0 0 0 0 1 1 0 0 0 1 0 1 1 1 1 1 0 1 0 0 1 1 1
    1       1    1 1 0 0 1 1 0 0 0 1 1 0 0 1 1 0 1 1 0 1 1 0 0 1 1
   45       2    1 0 0 1 0 0 0 1 0 0 1 1 0 0 0 0 1 1 0 0 1 1 1 0 1 1 0 0 0 0 0 1 1 0 0 0 0 0 1 0 1 1 1 1 1 0 1 1 1 1 0
    1       0    1 0 1 0 0 1 0 0 0 0 1 0 0 0 0 0 1 1 0 1 1 1 0 0 1 1 0 0 0 0 0 0 1 1 0 1 0 1 0 0 1 1 1 1 0 1 0 0 0 1 1
    1       1    1 1 0 1 0 0 0 0 0 1 1 0 1 0 1 0 1 0 0 1 1 0 0 1 1
   46       2    1 0 0 1 0 0 0 1 0 0 1 1 0 0 0 0 1 1 1 1 1 1 1 0 0 0 1 0 0 0 0 1 0 1 0 0 1 0 1 0 1 1 1 1 1 0 0 1 1 1 0
    1       0    1 0 1 0 0 1 0 0 0 0 0 1 1 0 0 0 1 1 0 0 1 1 0 1 1 1 0 0 0 0 0 0 1 1 0 1 0 1 0 1 1 1 1 1 0 1 0 0 1 1 1
    1       1    1 1 0 0 1 1 0 1 0 1 1 0 0 1 0 0 1 1 0 1 1 0 0 1 1
   47       2    1 0 0 1 0 0 0 1 0 0 1 1 0 0 0 0 1 1 1 1 1 1 1 0 0 0 1 0 0 0 0 1 0 1 0 0 1 0 1 0 1 1 1 1 1 0 0 1 1 1 0
    1       0    1 0 1 0 0 1 0 0 0 0 1 1 1 0 0 0 1 1 0 0 1 0 0 1 1 1 0 0 0 0 0 0 1 1 0 1 0 1 0 1 1 1 1 1 0 1 0 0 1 1 1
    1       1    1 1 0 0 1 1 0 1 0 1 1 0 0 1 1 0 1 1 0 1 1 0 0 1 1
   48       2    1 0 0 1 0 0 0 1 0 0 1 1 0 0 0 0 1 1 1 0 1 1 1 0 0 0 0 0 1 0 0 1 0 1 0 0 1 0 1 0 1 1 1 1 1 1 0 1 1 1 0
    1       0    0 0 0 1 0 1 0 0 0 0 0 0 0 0 0 0 1 1 0 1 1 1 0 0 1 1 0 0 0 0 0 0 0 1 0 1 0 1 0 0 1 1 1 1 0 1 0 0 0 1 1
    1       1    1 1 0 1 1 0 0 0 0 1 1 1 1 1 1 1 1 1 0 1 1 0 0 1 1
   49       2    1 0 0 1 0 0 0 1 0 0 1 1 0 0 0 0 1 0 1 0 1 1 1 0 0 1 0 0 1 1 0 1 1 1 0 0 0 0 1 0 1 1 1 1 1 1 0 1 1 1 0
    1       0    0 0 0 1 1 1 0 0 1 0 1 0 0 0 0 0 1 1 0 1 1 0 0 1 1 1 0 0 0 0 0 0 0 1 1 0 0 1 0 0 1 1 1 1 0 1 0 0 0 1 1
    1       1    1 1 0 1 1 0 0 0 1 1 1 1 1 1 1 1 1 0 0 1 1 0 0 1 1
   50       2    1 0 0 1 0 0 0 1 0 0 1 1 0 0 0 0 1 1 1 0 1 1 1 0 0 0 0 0 1 0 0 1 0 1 0 0 1 0 1 0 1 1 1 1 1 1 0 1 1 1 0
    1       0    0 0 0 1 0 1 0 0 0 0 0 0 0 0 0 0 1 1 0 1 1 1 0 0 1 1 0 0 0 0 0 0 0 1 0 1 0 1 0 0 1 1 1 1 0 1 0 0 0 1 1
    1       1    1 1 0 1 1 0 0 0 0 1 1 1 1 1 1 1 1 1 0 1 1 0 0 1 1
   51       2    1 0 0 1 0 0 0 1 0 0 1 1 0 0 0 0 1 1 1 0 1 1 1 0 0 0 0 0 1 0 0 1 0 1 0 0 1 0 1 0 1 1 1 1 1 1 0 1 1 1 0
    1       0    0 0 0 1 0 1 0 0 0 0 0 0 0 0 0 0 1 1 0 1 1 1 0 0 1 1 0 0 0 0 0 0 0 1 0 1 0 1 0 0 1 1 1 1 0 1 0 0 0 1 1
    1       1    1 1 0 1 1 0 0 0 0 1 1 1 1 1 1 1 1 1 0 1 1 0 0 1 1
   52       2    1 0 0 1 0 0 0 1 0 0 1 1 0 0 0 0 1 1 1 0 1 1 1 0 0 0 0 0 0 1 0 1 0 1 0 0 0 0 1 0 1 1 1 1 1 1 0 1 1 1 0
    1       0    0 0 0 1 0 1 0 0 0 0 0 0 0 0 0 1 1 1 0 1 1 1 0 0 1 1 0 0 0 0 0 0 0 1 0 0 0 1 0 0 1 1 1 1 0 1 0 0 0 1 1
    1       1    1 1 0 1 1 0 0 0 1 1 1 1 1 1 1 1 1 1 0 1 1 0 0 1 1
   53       2    1 0 0 1 0 0 0 1 0 0 1 1 0 0 0 0 1 1 0 0 1 1 1 0 1 1 0 0 0 0 0 1 0 0 0 0 0 0 1 0 1 1 1 1 1 0 0 1 1 1 0
    1       0    1 0 1 0 0 1 0 0 0 1 1 1 0 0 0 0 1 1 0 1 1 1 0 0 1 1 0 0 0 0 0 0 1 1 0 1 0 1 0 0 1 1 1 1 0 1 0 0 0 1 1
    1       1    1 1 0 1 0 0 0 1 0 0 1 0 1 0 1 0 1 0 0 1 1 0 0 1 1
   54       2    1 0 0 1 0 0 0 1 0 0 1 1 0 0 0 0 1 1 0 0 1 1 1 0 0 1 0 0 1 0 0 1 1 1 0 0 1 0 1 0 1 1 1 1 1 0 0 1 1 1 0
    1       0    1 0 1 1 0 1 0 0 0 0 0 1 0 0 0 0 1 1 0 1 1 1 0 0 1 1 0 0 0 0 0 0 0 1 0 1 0 1 0 0 1 1 1 1 0 1 0 0 0 1 1
    1       1    1 1 0 1 0 0 0 0 0 0 1 1 1 1 1 1 1 1 0 1 1 0 0 1 1
   8800000.00000000        1618033.00000000       0.000000000000000E+000
  1.136363636363636E-007   4757251.00000000        3852669.00000000     
           1          29           5
   7840505.00000000        7740352.00000000        2285044.00000000     
   5774706.00000000        3348970.00000000        5534051.00000000     
   1124351.00000000        5762731.00000000        6387302.00000000     
   671112.000000000        2660856.00000000        7462882.00000000     
   6367525.00000000        5164128.00000000        315329.000000000     
   4280633.00000000        7153685.00000000        3087386.00000000     
   4726175.00000000        5986887.00000000        3475541.00000000     
   8145947.00000000        3956856.00000000        4698041.00000000     
   6186480.00000000        881677.000000000        8760745.00000000     
   8722293.00000000        4757251.00000000        4753970.00000000     
   7187683.00000000        5747123.00000000        7243677.00000000     
   3421001.00000000        3579303.00000000        3334130.00000000     
   5540689.00000000        3906704.00000000        4761522.00000000     
   4074855.00000000        307361.000000000        7539191.00000000     
   2993022.00000000        5160467.00000000        6965392.00000000     
   317239.000000000        1593482.00000000        3812033.00000000     
   5862451.00000000        5331194.00000000        6759494.00000000     
   4146978.00000000        7551980.00000000        8112938.00000000     
   5110845.00000000     
   8800000.00000000        1618033.00000000       0.000000000000000E+000
  1.136363636363636E-007   5044483.00000000        8395837.00000000     
           1          35          11
   6128482.00000000        2446061.00000000        7673469.00000000     
   3775967.00000000        4538139.00000000        1671406.00000000     
   203185.000000000        1691109.00000000        3163988.00000000     
   1116183.00000000        1619159.00000000        8389754.00000000     
   1463734.00000000        6963401.00000000        4631166.00000000     
   2513194.00000000        3742480.00000000        5162510.00000000     
   4991573.00000000        8603185.00000000        438673.000000000     
   5272106.00000000        4290927.00000000        3093776.00000000     
   3209070.00000000        4802638.00000000        7127403.00000000     
   7078118.00000000        8415240.00000000        2847194.00000000     
   209724.000000000        4039650.00000000        4883337.00000000     
   2110221.00000000        5044483.00000000        5937562.00000000     
   6632056.00000000        1163098.00000000        8307177.00000000     
   5894960.00000000        7411837.00000000        2635309.00000000     
   445539.000000000        3057394.00000000        7421459.00000000     
   673484.000000000        2501569.00000000        1105785.00000000     
   372910.000000000        7057856.00000000        6012047.00000000     
   3012480.00000000        7605299.00000000        7160811.00000000     
   4053384.00000000     
   8800000.00000000        1618033.00000000       0.000000000000000E+000
  1.136363636363636E-007   7777696.00000000        7073189.00000000     
           1          35          11
   1746106.00000000        8296435.00000000        5015214.00000000     
   5199515.00000000        4493085.00000000        79504.0000000000     
   3141216.00000000        7332418.00000000        5084828.00000000     
   6426783.00000000        3484853.00000000        5388285.00000000     
   3443054.00000000        5561949.00000000        2600496.00000000     
   5788140.00000000        7435988.00000000        1738672.00000000     
   4111988.00000000        8386686.00000000        6939160.00000000     
   1791066.00000000        3452606.00000000        3358469.00000000     
   404957.000000000        2504682.00000000        3497117.00000000     
   4302487.00000000        6201340.00000000        7858889.00000000     
   3453616.00000000        5355057.00000000        5124192.00000000     
   4515757.00000000        7777696.00000000        6326626.00000000     
   8465636.00000000        7513246.00000000        5784289.00000000     
   4357094.00000000        1370177.00000000        3873749.00000000     
   2102223.00000000        7047958.00000000        4745006.00000000     
   7517544.00000000        7077980.00000000        8649075.00000000     
   1552386.00000000        7161290.00000000        5286924.00000000     
   2563288.00000000        6060679.00000000        7593603.00000000     
   6598435.00000000     
