          58          54   1.00000000000000     
    1       2    1 0 0 1 0 0 0 1 0 0 1 1 0 0 0 0 1 1 0 0 1 1 1 0 0 0 0 0 0 0 0 1 0 1 0 0 0 0 1 0 1 1 1 1 1 1 0 1 1 1 0
    1       0    1 0 0 0 0 1 0 0 0 0 1 0 0 0 0 0 1 1 0 1 1 1 0 0 1 1 0 0 0 0 0 0 0 1 0 1 0 1 0 0 1 1 1 1 0 1 0 0 0 1 1
    1       1    1 1 0 1 0 0 0 0 0 0 1 1 1 1 0 1 1 1 0 1 1 0 0 1 1
    2       2    1 0 0 1 0 0 0 1 0 0 1 1 0 0 0 0 1 1 0 1 1 1 1 0 0 0 1 0 0 0 0 1 0 1 0 0 1 0 1 0 1 1 1 1 1 1 0 1 1 1 0
    1       0    1 0 1 0 0 1 0 0 0 0 1 1 0 1 0 0 1 1 0 0 1 0 0 1 1 1 0 0 0 0 0 0 1 1 0 1 0 1 0 0 1 1 1 1 0 1 0 0 1 0 1
    1       1    1 1 0 0 1 1 0 0 0 1 1 1 0 1 1 1 1 1 0 1 1 0 0 1 1
    3       2    1 0 0 1 0 0 0 1 0 0 1 1 0 0 0 0 1 1 0 1 1 1 1 0 0 0 1 0 0 0 0 1 0 1 0 0 1 0 1 0 1 1 1 1 1 1 0 1 1 1 0
    1       0    1 0 1 0 0 1 0 0 0 0 1 1 0 0 0 0 1 1 0 0 1 0 0 1 1 1 0 0 0 0 0 0 1 1 0 1 0 1 0 0 1 1 1 1 0 1 0 0 1 0 1
    1       1    1 1 0 0 1 1 0 0 0 1 1 0 0 1 1 0 1 1 0 1 1 0 0 1 1
    4       2    1 0 0 1 0 0 0 1 0 0 1 1 0 0 0 0 1 1 0 1 1 1 1 0 0 0 1 0 0 0 0 1 0 1 0 0 1 0 1 0 1 1 1 1 1 1 0 1 1 1 0
    1       0    1 0 1 0 0 1 0 0 0 0 1 1 0 1 0 0 1 1 0 0 1 0 0 1 1 1 0 0 0 0 0 0 1 1 0 1 0 1 0 0 1 1 1 1 0 1 0 0 1 0 1
    1       1    1 1 0 0 1 1 0 0 0 1 1 1 0 1 1 1 1 1 0 1 1 0 0 1 1
    5       2    1 0 0 1 0 0 0 1 0 0 1 1 0 0 0 0 1 1 1 1 1 1 1 0 0 0 1 0 0 0 0 1 0 1 0 0 1 0 1 0 1 1 1 1 1 0 0 1 1 1 0
    1       0    1 0 1 0 0 1 0 0 0 0 1 1 1 0 0 0 1 1 0 0 1 0 0 1 1 1 0 0 0 0 0 0 1 1 0 1 0 1 0 1 1 1 1 1 0 1 0 0 1 1 1
    1       1    1 1 0 0 1 1 0 0 0 1 1 0 0 1 1 0 1 1 0 1 1 0 0 1 1
    6       2    1 0 0 1 0 0 0 1 0 0 1 1 0 0 0 0 1 1 1 1 1 1 1 0 0 0 0 1 0 0 0 1 0 0 0 0 1 0 1 0 1 1 1 1 1 0 0 1 1 1 0
    1       0    1 0 1 0 0 1 0 0 0 0 1 0 1 0 0 0 1 0 0 0 1 0 0 1 1 1 0 0 0 0 0 0 1 1 0 1 0 1 0 1 1 1 1 1 0 1 0 0 1 1 1
    1       1    1 1 0 0 1 1 0 0 0 1 1 1 0 1 1 0 1 0 0 1 1 0 0 1 1
    7       2    1 0 0 1 0 0 0 1 0 0 1 1 0 0 0 0 1 1 1 1 1 1 1 0 0 0 1 0 0 0 0 1 0 1 0 0 1 0 1 0 1 1 1 1 1 0 0 1 1 1 0
    1       0    1 0 1 0 0 1 0 0 0 0 1 1 1 0 0 0 1 1 0 0 1 0 0 1 1 1 0 0 0 0 0 0 1 1 0 1 0 1 0 1 1 1 1 1 0 1 0 0 1 1 1
    1       1    1 1 0 0 1 1 0 0 0 1 1 0 0 1 1 0 1 1 0 1 1 0 0 1 1
    8       2    1 0 0 1 0 0 0 1 0 0 1 1 0 0 0 0 1 1 1 1 1 1 1 0 0 0 1 0 0 0 0 1 0 1 0 0 1 0 1 0 1 1 1 1 1 0 0 1 1 1 0
    1       0    1 0 1 0 0 1 0 0 0 0 1 1 1 0 0 0 1 1 0 0 1 1 0 1 1 1 0 0 0 0 0 0 1 1 0 1 0 1 0 1 1 1 1 1 0 1 0 0 1 1 1
    1       1    1 1 0 0 1 1 0 0 0 1 1 0 0 1 1 0 1 1 0 1 1 0 0 1 1
    9       2    1 0 0 1 0 0 0 1 0 0 1 1 0 0 0 0 1 1 1 1 1 1 1 0 0 0 1 0 0 0 0 1 0 1 0 0 1 0 1 0 1 1 1 1 1 0 0 1 1 1 0
    1       0    1 0 1 0 0 1 0 0 0 0 1 1 1 0 0 0 1 1 0 0 1 0 0 1 1 1 0 0 0 0 0 0 1 1 0 1 0 1 0 1 1 1 1 1 0 1 0 0 1 1 1
    1       1    1 1 0 0 1 1 0 0 0 1 1 0 0 1 1 0 1 1 0 1 1 0 0 1 1
   10       2    1 0 0 1 0 0 0 1 0 0 1 1 0 0 0 0 1 1 1 0 1 1 1 0 1 1 1 0 1 0 0 1 0 1 0 0 1 0 1 0 1 1 1 1 1 0 0 1 1 1 0
    1       0    1 0 1 0 0 1 0 0 0 1 1 1 1 0 0 0 1 1 0 0 0 1 0 0 1 1 0 0 0 0 0 0 1 1 0 1 0 1 0 1 1 1 1 1 0 1 0 0 1 1 1
    1       1    1 1 0 0 1 1 0 0 0 1 1 1 1 1 1 0 1 0 0 1 1 0 0 1 1
   11       2    1 0 0 1 0 0 0 1 0 0 1 1 0 0 0 0 1 1 1 1 1 1 1 0 0 0 1 0 0 0 0 1 0 0 0 0 1 0 1 0 1 1 1 1 1 0 0 1 1 1 0
    1       0    1 0 1 0 0 1 0 0 0 0 1 1 0 0 0 0 1 1 0 0 1 0 0 1 1 1 0 0 0 0 0 0 1 1 0 1 0 1 0 0 1 1 1 1 0 1 0 0 1 1 1
    1       1    1 1 0 0 1 1 0 0 0 1 1 0 0 1 1 0 1 1 0 1 1 0 0 1 1
   12       2    1 0 0 1 0 0 0 1 0 0 1 1 0 0 0 0 1 1 1 1 1 1 1 1 0 0 1 0 0 0 0 1 0 1 0 0 1 0 1 0 1 1 1 1 1 0 0 1 1 1 0
    1       0    1 0 1 0 0 1 0 0 0 0 1 1 1 0 0 0 1 1 0 0 1 0 0 1 1 1 0 0 0 0 0 0 1 1 0 1 0 1 0 1 1 1 1 1 0 1 0 0 1 1 1
    1       1    1 1 0 0 1 1 0 0 0 1 1 0 0 1 1 0 1 1 0 1 1 0 0 1 1
   13       2    1 0 0 1 0 0 0 1 0 0 1 1 0 0 0 0 1 1 1 1 1 1 1 0 0 0 1 0 0 0 0 1 0 1 0 0 1 0 1 0 1 1 1 1 1 0 0 1 1 1 0
    1       0    1 0 1 0 0 1 0 0 0 0 1 1 1 0 0 0 1 1 0 0 1 0 0 1 1 1 0 0 0 0 0 0 1 1 0 0 0 1 0 1 1 1 1 1 0 1 0 0 1 1 1
    1       1    1 1 0 0 1 1 0 0 0 1 1 0 0 0 1 0 1 1 0 1 1 0 0 1 1
   14       2    1 0 0 1 0 0 0 1 0 0 1 1 0 0 0 0 1 1 1 1 1 1 1 0 0 0 0 1 0 0 0 1 0 0 0 0 1 0 1 0 1 1 1 1 1 0 0 1 1 1 0
    1       0    1 0 1 0 0 1 0 0 0 0 1 0 1 0 0 0 1 0 0 0 1 1 0 1 1 1 0 0 0 0 0 0 1 1 0 1 0 1 0 1 1 1 1 1 0 1 0 0 1 1 1
    1       1    1 1 0 0 1 1 0 0 0 1 1 1 0 1 1 0 1 0 0 1 1 0 0 1 1
   15       2    1 0 0 1 0 0 0 1 0 0 1 1 0 0 0 0 1 1 1 1 1 1 1 0 0 0 1 1 0 0 0 1 0 0 0 0 1 0 1 0 1 1 1 1 1 0 0 1 1 1 0
    1       0    1 0 1 0 0 1 0 0 0 0 0 1 1 0 0 0 1 0 0 0 1 0 0 1 1 1 0 0 0 0 0 0 1 1 0 1 0 1 0 1 1 1 1 1 0 1 0 0 1 1 1
    1       1    1 1 0 0 1 1 0 0 0 1 1 0 0 1 1 0 1 0 0 1 1 0 0 1 1
   16       2    1 0 0 1 0 0 0 1 0 0 1 1 0 0 1 0 1 1 1 1 1 1 1 0 0 0 0 0 0 0 0 1 1 0 0 0 1 0 1 0 1 1 1 1 1 0 0 1 1 1 0
    1       0    1 0 1 0 0 1 0 0 0 1 1 0 1 0 0 0 1 0 0 0 0 1 0 1 1 1 0 0 0 0 0 0 1 1 0 1 0 1 0 1 1 1 1 1 0 1 0 0 1 1 1
    1       1    1 1 0 0 1 1 0 0 0 0 1 1 1 0 1 0 1 1 0 1 1 0 0 1 1
   17       2    1 0 0 1 0 0 0 1 0 0 1 1 0 0 0 0 1 1 1 1 1 1 1 0 0 0 1 0 0 0 0 1 0 1 0 0 1 0 1 0 1 1 1 1 1 0 0 1 1 1 0
    1       0    1 0 1 0 0 1 0 0 0 0 1 1 0 0 0 0 1 1 0 0 1 0 0 1 1 1 0 0 0 0 0 0 1 1 0 1 0 1 0 1 1 1 1 1 0 1 0 0 1 1 1
    1       1    1 1 0 0 1 1 0 0 0 1 1 0 0 1 1 0 1 1 0 1 1 0 0 1 1
   18       2    1 0 0 1 0 0 0 1 0 0 1 1 0 0 0 0 1 1 1 1 1 1 1 0 0 0 1 0 0 0 0 1 0 0 0 0 1 0 1 0 1 1 1 1 1 0 0 1 1 1 0
    1       0    1 0 1 0 0 1 0 0 0 0 1 1 1 0 0 0 1 1 0 0 1 0 0 1 1 1 0 0 0 0 0 0 1 1 0 1 0 1 0 0 1 1 1 1 0 1 0 0 1 1 1
    1       1    1 1 0 0 1 1 0 0 0 1 1 0 0 1 1 0 1 1 0 1 1 0 0 1 1
   19       2    1 0 0 1 0 0 0 1 0 0 1 1 0 0 0 0 1 1 1 1 1 1 1 0 0 0 1 1 0 0 0 1 0 0 0 0 1 0 1 0 1 1 1 1 1 0 0 1 1 1 0
    1       0    1 0 1 0 0 1 0 0 0 0 1 1 0 0 0 0 1 1 0 0 1 0 0 1 1 1 0 0 0 0 0 0 1 1 0 1 0 1 0 1 1 1 1 1 0 1 0 0 1 1 1
    1       1    1 1 0 0 1 1 0 0 0 0 1 1 0 1 1 0 1 0 0 1 1 0 0 1 1
   20       2    1 0 0 1 0 0 0 1 0 0 1 1 0 0 0 0 1 1 1 1 1 1 0 1 0 0 1 0 0 0 0 1 0 0 0 0 1 0 1 0 1 1 1 1 1 0 0 1 1 1 0
    1       0    1 0 1 0 0 1 0 0 0 1 1 1 1 0 1 0 1 1 0 0 1 1 0 1 1 1 0 0 0 0 0 0 1 1 0 1 0 1 0 1 1 1 1 1 0 1 0 0 1 1 1
    1       1    1 1 0 0 1 1 0 0 0 0 1 0 0 1 1 1 1 0 0 1 1 0 0 1 1
   21       2    1 0 0 1 0 0 0 1 0 0 1 1 0 0 0 0 1 1 1 1 1 1 1 0 0 0 1 1 0 0 0 1 0 0 0 0 1 0 1 0 1 1 1 1 1 0 0 1 1 1 0
    1       0    1 0 1 0 0 1 0 0 1 0 1 1 1 0 0 0 1 1 0 0 1 0 0 1 1 1 0 0 0 0 0 0 1 1 0 1 0 1 0 1 1 1 1 1 0 1 0 0 1 1 1
    1       1    1 1 0 0 1 1 0 0 0 0 1 1 0 1 1 0 1 0 0 1 1 0 0 1 1
   22       2    1 0 0 1 0 0 0 1 0 0 1 1 0 0 0 0 1 1 1 1 1 1 1 0 0 1 1 0 0 0 0 1 0 0 1 0 1 0 1 0 1 1 1 1 1 0 0 1 1 1 0
    1       0    1 0 1 0 0 1 0 0 0 0 1 0 1 0 0 0 1 0 0 0 1 1 0 1 1 1 0 0 0 0 0 0 1 1 0 1 0 1 0 1 1 1 1 1 0 1 0 0 1 1 1
    1       1    1 1 0 0 1 1 0 0 0 1 1 0 0 1 1 0 1 1 0 1 1 0 0 1 1
   23       2    1 0 0 1 0 0 0 1 0 0 1 1 0 0 0 0 1 1 1 1 1 1 1 0 0 0 1 0 0 0 0 1 0 1 0 1 1 0 1 0 1 1 1 1 1 0 0 1 1 1 0
    1       0    1 0 1 0 0 1 0 0 1 0 1 1 0 0 0 0 1 1 0 0 1 1 0 1 1 1 0 0 0 0 0 0 1 1 0 0 0 1 0 1 1 1 1 1 0 1 0 0 1 1 1
    1       1    1 1 0 0 1 1 0 0 0 1 1 0 0 1 1 0 1 1 0 1 1 0 0 1 1
   24       2    1 0 0 1 0 0 0 1 0 0 1 1 0 0 0 0 1 1 1 1 1 1 1 0 0 0 1 1 0 0 0 1 0 0 0 0 1 0 1 0 1 1 1 1 1 0 0 1 1 1 0
    1       0    1 0 1 0 0 1 0 0 0 0 1 1 0 0 1 0 1 1 0 0 1 0 0 1 1 1 0 0 0 0 0 0 1 1 0 1 0 1 0 1 1 1 1 1 0 1 0 0 1 1 1
    1       1    1 1 0 0 1 1 0 0 0 0 1 0 0 1 1 0 1 0 0 1 1 0 0 1 1
   25       2    1 0 0 1 0 0 0 1 0 0 1 1 0 0 0 0 1 1 1 1 1 1 1 0 0 0 1 0 0 0 0 1 0 0 0 0 1 0 1 0 1 1 1 1 1 0 0 1 1 1 0
    1       0    1 0 1 0 0 1 0 0 0 0 1 1 1 0 0 0 1 1 0 0 1 0 0 1 1 1 0 0 0 0 0 0 1 1 0 1 0 1 0 0 1 1 1 1 0 1 0 0 1 1 1
    1       1    1 1 0 0 1 1 0 0 0 1 1 0 0 1 1 0 1 1 0 1 1 0 0 1 1
   26       2    1 0 0 1 0 0 0 1 0 0 1 1 0 0 0 0 1 1 1 0 1 1 1 0 0 0 1 0 0 0 0 1 0 1 0 0 1 0 1 0 1 1 1 1 1 0 0 1 1 1 0
    1       0    1 0 1 0 0 1 0 0 0 0 1 1 1 0 0 0 1 0 0 0 1 0 0 1 1 1 0 0 0 0 0 0 1 1 0 1 0 1 0 1 1 1 1 1 0 1 0 0 1 1 1
    1       1    1 1 0 0 1 1 0 0 0 1 1 1 0 1 1 0 1 0 0 1 1 0 0 1 1
   27       2    1 0 0 1 0 0 0 1 0 0 1 1 0 0 0 0 1 1 1 1 1 1 1 0 0 0 1 0 0 0 0 1 0 0 1 0 1 0 1 0 1 1 1 1 1 0 0 1 1 1 0
    1       0    1 0 1 0 0 1 0 0 0 0 1 0 0 0 0 0 1 1 0 0 1 1 0 1 1 1 0 0 0 0 0 0 1 1 0 1 0 1 0 1 1 1 1 1 0 1 0 0 1 1 1
    1       1    1 1 0 0 1 1 0 0 0 1 1 0 0 1 1 0 1 1 0 1 1 0 0 1 1
   28       2    1 0 0 1 0 0 0 1 0 0 1 1 0 0 0 0 1 1 1 1 1 1 1 0 0 0 1 0 0 0 0 1 0 1 0 0 1 0 1 0 1 1 1 1 1 0 0 1 1 1 0
    1       0    1 0 1 0 0 1 0 1 0 0 1 1 0 0 0 0 1 1 0 0 1 0 0 1 1 1 0 0 0 0 0 0 1 1 0 0 0 1 0 1 1 1 1 1 0 1 0 0 1 1 1
    1       1    1 1 0 0 1 1 0 0 0 1 0 0 0 1 1 0 1 1 0 1 1 0 0 1 1
   29       2    1 0 0 1 0 0 0 1 0 0 1 1 0 0 0 0 1 1 1 1 1 1 1 0 0 0 0 0 0 0 0 1 0 0 0 0 1 0 1 0 1 1 1 1 1 0 0 1 1 1 0
    1       0    1 0 1 0 0 1 0 1 0 1 1 0 0 0 0 0 1 0 0 0 0 0 0 1 1 1 0 0 0 0 0 0 1 1 0 1 0 1 0 1 1 1 1 1 0 1 0 0 1 1 1
    1       1    1 1 0 0 1 1 0 0 0 0 1 0 1 0 1 0 1 0 0 1 1 0 0 1 1
   30       2    1 0 0 1 0 0 0 1 0 0 1 1 0 0 0 0 1 1 1 1 1 1 1 0 0 0 1 1 0 0 0 1 0 1 0 0 1 0 1 0 1 1 1 1 1 0 0 1 1 1 0
    1       0    1 0 1 0 0 1 0 0 0 0 1 1 0 0 0 0 1 1 0 0 1 0 0 1 1 1 0 0 0 0 0 0 1 1 0 1 0 1 0 1 1 1 1 1 0 1 0 0 1 1 1
    1       1    1 1 0 0 1 1 0 0 0 1 1 1 0 1 1 0 1 0 0 1 1 0 0 1 1
   31       2    1 0 0 1 0 0 0 1 0 0 1 1 0 0 0 0 1 1 1 1 1 1 1 0 0 0 1 1 0 0 0 1 0 1 0 0 1 0 1 0 1 1 1 1 1 0 0 1 1 1 0
    1       0    1 0 1 0 0 1 0 0 0 0 0 1 1 0 0 0 1 0 0 0 1 0 0 1 1 1 0 0 0 0 0 0 1 1 0 0 0 1 0 1 1 1 1 1 0 1 0 0 1 1 1
    1       1    1 1 0 0 1 1 0 0 0 1 1 1 0 0 1 0 1 0 0 1 1 0 0 1 1
   32       2    1 0 0 1 0 0 0 1 0 0 1 1 0 0 0 0 1 1 1 1 1 1 1 0 0 0 1 0 0 0 0 1 0 1 0 0 1 0 1 0 1 1 1 1 1 0 0 1 1 1 0
    1       0    1 0 1 0 0 1 0 0 0 0 1 1 0 0 0 0 1 1 0 0 1 0 0 1 1 1 0 0 0 0 0 0 1 1 0 0 0 1 0 1 1 1 1 1 0 1 0 0 1 1 1
    1       1    1 1 0 0 1 1 0 0 0 1 0 0 0 1 1 0 1 1 0 1 1 0 0 1 1
   33       2    1 0 0 1 0 0 0 1 0 0 1 1 0 0 0 0 1 1 1 0 1 1 1 0 0 0 1 0 0 0 0 0 0 1 0 0 1 0 1 0 1 1 1 1 1 0 0 1 1 1 0
    1       0    1 0 1 0 0 1 0 1 0 0 1 0 1 0 0 0 1 0 0 0 1 0 0 1 1 1 0 0 0 0 0 0 1 1 0 1 0 1 0 1 1 1 1 1 0 1 0 0 1 1 1
    1       1    1 1 0 0 1 1 0 0 0 1 1 1 0 1 0 0 1 0 0 1 1 0 0 1 1
   34       2    1 0 0 1 0 0 0 1 0 0 1 1 0 0 0 0 1 1 1 1 1 1 0 0 0 0 1 0 0 0 0 1 0 0 0 0 1 0 1 0 1 1 1 1 1 0 0 1 1 1 0
    1       0    1 0 1 0 0 1 0 0 0 0 1 1 1 0 0 0 1 1 0 0 1 0 0 1 1 1 0 0 0 0 0 0 1 1 0 1 0 1 0 0 1 1 1 1 0 1 0 0 1 1 1
    1       1    1 1 0 0 1 1 0 0 0 1 1 0 0 1 1 0 1 1 0 1 1 0 0 1 1
   35       2    1 0 0 1 0 0 0 1 0 0 1 1 0 0 1 0 1 1 1 1 1 1 1 0 0 0 1 0 0 0 0 1 1 0 0 0 0 0 1 0 1 1 1 1 1 0 0 1 1 1 0
    1       0    1 0 1 0 0 1 0 0 0 0 1 1 1 0 0 0 1 0 0 0 0 0 0 1 1 1 0 0 0 0 0 0 1 1 0 1 0 1 0 1 1 1 1 1 0 1 0 0 1 1 1
    1       1    1 1 0 0 1 1 0 0 0 0 1 1 0 1 1 0 1 1 0 1 1 0 0 1 1
   36       2    1 0 0 1 0 0 0 1 0 0 1 1 0 0 0 0 1 1 1 1 1 1 1 0 0 0 1 0 0 0 0 1 0 0 0 0 1 0 1 0 1 1 1 1 1 0 0 1 1 1 0
    1       0    1 0 1 0 0 1 0 0 0 1 1 1 1 0 0 0 1 1 0 0 1 1 0 1 1 1 0 0 0 0 0 0 1 1 0 1 0 1 0 1 0 1 1 1 0 1 0 0 1 1 1
    1       1    1 1 0 0 1 1 0 0 0 1 1 0 0 1 1 0 1 1 0 1 1 0 0 1 1
   37       2    1 0 0 1 0 0 0 1 0 0 1 1 0 0 0 0 1 1 1 1 1 1 1 1 0 0 1 0 0 0 0 1 0 1 0 0 1 0 1 0 1 1 1 1 1 0 0 1 1 1 0
    1       0    1 0 1 0 0 1 0 0 0 0 1 1 0 0 0 0 1 1 0 0 1 0 0 1 1 1 0 0 0 0 0 0 1 1 0 0 0 1 0 0 1 1 1 1 0 1 0 0 1 1 1
    1       1    1 1 0 0 1 1 0 0 0 1 1 0 0 1 1 0 1 1 0 1 1 0 0 1 1
   38       2    1 0 0 1 0 0 0 1 0 0 1 1 0 0 0 0 1 1 1 1 1 1 1 1 0 0 1 0 0 0 0 1 0 0 0 0 1 0 1 0 1 1 1 1 1 0 0 1 1 1 0
    1       0    1 0 1 0 0 1 0 0 0 0 1 1 1 0 0 0 0 1 0 0 1 0 0 1 1 1 0 0 0 0 0 0 1 1 0 1 0 1 0 1 1 1 1 1 0 1 0 0 1 1 1
    1       1    1 1 0 0 1 1 0 0 0 1 1 0 0 0 1 0 1 1 0 1 1 0 0 1 1
   39       2    1 0 0 1 0 0 0 1 0 0 1 1 0 0 0 0 1 1 0 0 1 1 1 0 0 1 0 0 0 0 0 1 0 1 0 0 0 0 1 0 1 1 1 1 1 0 0 1 1 1 0
    1       0    1 0 1 0 0 1 0 0 0 1 1 1 0 0 0 0 1 1 0 1 1 1 0 0 1 1 0 0 0 0 0 0 1 1 0 1 0 1 0 0 1 1 1 1 0 1 0 0 0 1 1
    1       1    1 1 0 1 0 0 0 0 0 0 1 0 1 1 0 0 1 0 0 1 1 0 0 1 1
   40       2    1 0 0 1 0 0 0 1 0 0 1 1 0 0 0 0 1 1 0 0 1 1 1 0 0 1 0 0 0 0 0 1 1 0 0 0 0 0 1 0 1 1 1 1 1 0 0 1 1 1 0
    1       0    1 0 1 0 0 1 0 0 0 1 1 1 0 0 0 0 1 1 0 1 1 1 0 0 1 1 0 0 0 0 0 0 1 1 0 1 0 1 0 0 1 1 1 1 0 1 0 0 0 1 1
    1       1    1 1 0 1 0 0 0 0 0 0 1 0 1 0 1 0 1 0 0 1 1 0 0 1 1
   41       2    1 0 0 1 0 0 0 1 0 0 1 1 0 0 0 0 1 1 1 0 1 1 1 0 1 1 0 0 0 0 0 1 1 1 0 0 0 0 1 0 1 1 1 1 1 0 0 1 1 1 0
    1       0    1 0 1 0 0 1 0 0 0 0 1 1 1 1 0 0 1 1 0 1 1 1 0 0 1 1 0 0 0 0 0 0 1 1 0 1 0 1 1 0 1 1 1 1 0 1 0 0 0 1 1
    1       1    1 1 0 1 0 0 0 0 0 0 1 0 1 1 1 0 1 0 0 1 1 0 0 1 1
   42       2    1 0 0 1 0 0 0 1 0 0 1 1 0 0 1 0 1 1 0 0 1 1 1 0 0 1 0 1 0 0 0 1 0 0 0 0 0 0 1 0 1 1 1 1 1 0 0 1 1 1 0
    1       0    1 0 1 0 0 1 0 0 0 0 1 1 0 0 0 0 1 1 0 1 1 1 0 0 1 1 0 0 0 0 0 0 1 1 0 1 0 1 0 0 1 1 1 1 0 1 0 0 0 1 1
    1       1    1 1 0 1 0 0 0 0 0 1 1 0 0 1 1 0 1 0 0 1 1 0 0 1 1
   43       2    1 0 0 1 0 0 0 1 0 0 1 1 0 0 0 0 1 1 1 0 1 1 1 0 0 0 1 0 0 0 0 1 1 0 0 0 0 0 1 0 1 1 1 1 1 0 0 1 1 1 0
    1       0    1 0 1 0 0 1 1 0 0 1 1 0 1 0 0 0 1 1 0 1 1 1 0 0 1 1 0 0 0 0 0 0 1 1 0 1 0 1 0 0 1 1 1 1 0 1 0 0 0 1 1
    1       1    1 1 0 1 0 0 0 0 0 0 1 0 1 1 1 0 1 0 0 1 1 0 0 1 1
   44       2    1 0 0 1 0 0 0 1 0 0 1 1 0 0 0 0 1 1 1 1 1 1 1 0 0 0 1 1 0 0 0 1 1 0 0 0 0 0 1 0 1 1 1 1 1 0 0 1 1 1 0
    1       0    1 0 1 0 0 1 1 0 0 0 1 0 0 0 0 0 1 1 0 0 1 0 0 0 1 1 0 0 0 0 0 0 1 1 0 1 0 1 0 0 1 1 1 1 0 1 0 0 0 1 1
    1       1    1 1 0 1 0 0 0 0 0 0 1 1 0 1 1 0 1 0 0 1 1 0 0 1 1
   45       2    1 0 0 1 0 0 0 1 0 0 1 1 0 0 0 0 1 1 1 1 1 1 0 0 0 1 1 0 0 0 0 0 0 1 0 0 1 0 1 0 1 1 1 1 1 0 0 1 1 1 0
    1       0    1 0 1 0 0 1 0 0 0 0 1 1 1 0 0 0 1 1 0 0 1 1 0 0 1 1 0 0 0 0 0 0 1 1 0 1 0 1 0 0 1 1 1 1 0 1 0 0 0 1 1
    1       1    1 1 0 1 0 0 0 0 0 0 1 0 0 1 1 0 1 0 0 1 1 0 0 1 1
   46       2    1 0 0 1 0 0 0 1 0 0 1 1 0 0 0 0 1 1 1 0 1 1 0 0 1 0 0 0 1 0 0 0 1 1 0 0 0 0 1 0 1 1 1 1 1 0 0 1 1 1 0
    1       0    0 0 1 0 1 1 0 0 0 0 1 1 0 0 1 0 0 1 0 1 1 1 0 0 1 1 0 0 0 0 0 0 1 1 0 1 1 1 0 0 1 1 1 1 0 1 0 0 0 0 0
    1       1    1 1 0 1 1 1 0 0 0 1 1 0 1 1 1 0 1 0 0 1 1 0 0 1 1
   47       2    1 0 0 1 0 0 0 1 0 0 1 1 0 0 0 0 1 1 1 0 1 1 0 0 0 1 0 0 1 0 0 0 1 0 0 0 0 0 1 0 1 1 1 1 1 0 0 1 1 1 0
    1       0    0 0 1 0 1 1 0 0 1 0 1 1 0 0 1 0 0 1 0 1 1 0 0 0 1 1 0 0 0 0 0 0 1 1 0 0 1 1 0 0 1 1 1 1 0 1 0 0 0 0 0
    1       1    1 1 0 1 1 1 0 0 0 1 1 0 1 1 1 1 1 0 0 1 1 0 0 1 1
   48       2    1 0 0 1 0 0 0 1 0 0 1 1 0 0 1 1 1 1 1 0 1 1 0 0 1 1 0 0 1 1 0 0 1 1 0 0 0 0 1 0 1 1 1 1 1 0 0 1 1 1 0
    1       0    0 0 1 0 1 1 0 0 0 0 1 1 0 0 1 0 0 1 0 1 1 0 0 0 1 1 0 0 0 0 0 0 1 1 0 1 1 1 0 0 1 1 1 1 0 1 0 0 0 0 0
    1       1    1 1 0 1 1 1 0 0 0 1 1 0 1 1 1 0 1 0 0 1 1 0 0 1 1
   49       2    1 0 0 1 0 0 0 1 0 0 1 1 0 0 0 0 1 1 1 0 1 1 1 0 0 0 0 0 1 0 0 1 0 1 0 0 1 0 1 0 1 1 1 1 1 1 0 1 1 1 0
    1       0    0 0 0 1 0 1 0 0 0 0 0 0 0 0 0 0 1 1 0 1 1 1 0 0 1 1 0 0 0 0 0 0 0 1 0 1 0 1 0 0 1 1 1 1 0 1 0 0 0 1 1
    1       1    1 1 0 1 1 0 0 0 0 1 1 1 1 1 1 1 1 1 0 1 1 0 0 1 1
   50       2    1 0 0 1 0 0 0 1 0 0 1 1 0 0 0 0 1 1 1 0 1 1 1 0 0 0 0 0 1 0 0 1 0 1 0 0 1 0 1 0 1 1 1 1 1 1 0 1 1 1 0
    1       0    0 0 0 1 0 1 0 0 0 0 0 0 0 0 0 0 1 1 0 1 1 1 0 0 1 1 0 0 0 0 0 0 0 1 0 1 0 1 0 0 1 1 1 1 0 1 0 0 0 1 1
    1       1    1 1 0 1 1 0 0 0 0 1 1 1 1 1 1 1 1 1 0 1 1 0 0 1 1
   51       2    1 0 0 1 0 0 0 1 0 0 1 1 0 0 0 0 1 1 1 0 1 1 1 0 0 0 0 0 0 1 0 1 1 1 0 0 0 0 1 0 1 1 1 1 1 0 0 1 1 1 0
    1       0    0 0 1 0 1 1 0 0 0 1 1 1 0 0 0 0 1 1 0 1 1 1 0 0 1 1 0 0 0 0 0 0 1 1 0 1 0 1 0 0 1 1 1 1 0 1 0 0 0 0 1
    1       1    1 1 0 1 1 1 0 0 0 1 1 0 1 1 1 0 1 0 0 1 1 0 0 1 1
   52       2    1 0 0 1 0 0 0 1 0 0 1 1 0 0 0 0 1 1 1 0 1 1 1 1 0 0 0 0 0 1 0 1 0 1 0 0 0 0 1 0 1 1 1 1 1 0 0 1 1 1 0
    1       0    0 0 1 0 0 1 0 0 0 1 1 0 1 0 0 0 1 1 0 1 1 1 0 0 1 1 0 0 0 0 0 0 1 1 0 1 0 1 0 0 1 1 1 1 0 1 0 0 0 0 1
    1       1    1 1 0 1 1 1 0 0 0 1 1 0 1 1 1 0 1 0 0 1 1 0 0 1 1
   53       2    1 0 0 1 0 0 0 1 0 0 1 1 0 0 1 0 1 1 1 0 1 1 1 0 0 0 1 0 1 1 0 1 1 0 0 0 0 0 1 0 1 1 1 1 1 0 0 1 1 1 0
    1       0    0 0 1 0 0 1 0 0 0 0 0 0 1 0 1 0 1 1 0 1 0 0 0 0 1 1 0 0 0 0 0 0 0 1 0 0 0 1 1 0 1 1 1 1 0 1 0 0 0 0 1
    1       1    1 1 0 1 1 1 0 0 0 1 1 0 1 0 1 0 1 0 0 1 1 0 0 1 1
   54       2    1 0 0 1 0 0 0 1 0 0 1 1 0 1 0 0 1 1 1 0 1 1 1 0 1 0 0 0 1 1 0 1 1 1 0 0 0 0 1 0 1 1 1 1 1 0 0 1 1 1 0
    1       0    0 0 1 0 1 1 0 0 0 0 1 1 0 0 0 0 1 1 0 1 0 1 0 0 1 1 0 0 0 0 0 0 1 1 0 1 0 1 0 0 1 1 1 1 0 1 0 0 0 0 1
    1       1    1 1 0 1 1 1 0 0 0 1 1 0 1 1 0 0 1 0 0 1 1 0 0 1 1
   8800000.00000000        1618033.00000000       0.000000000000000E+000
  1.136363636363636E-007   4757251.00000000        3852669.00000000     
           1          29           5
   7840505.00000000        7740352.00000000        2285044.00000000     
   5774706.00000000        3348970.00000000        5534051.00000000     
   1124351.00000000        5762731.00000000        6387302.00000000     
   671112.000000000        2660856.00000000        7462882.00000000     
   6367525.00000000        5164128.00000000        315329.000000000     
   4280633.00000000        7153685.00000000        3087386.00000000     
   4726175.00000000        5986887.00000000        3475541.00000000     
   8145947.00000000        3956856.00000000        4698041.00000000     
   6186480.00000000        881677.000000000        8760745.00000000     
   8722293.00000000        4757251.00000000        4753970.00000000     
   7187683.00000000        5747123.00000000        7243677.00000000     
   3421001.00000000        3579303.00000000        3334130.00000000     
   5540689.00000000        3906704.00000000        4761522.00000000     
   4074855.00000000        307361.000000000        7539191.00000000     
   2993022.00000000        5160467.00000000        6965392.00000000     
   317239.000000000        1593482.00000000        3812033.00000000     
   5862451.00000000        5331194.00000000        6759494.00000000     
   4146978.00000000        7551980.00000000        8112938.00000000     
   5110845.00000000     
   8800000.00000000        1618033.00000000       0.000000000000000E+000
  1.136363636363636E-007   5970608.00000000        8395837.00000000     
           1          23          54
   6012106.00000000        4914069.00000000        2920151.00000000     
   4059321.00000000        1760284.00000000        8221054.00000000     
   4363099.00000000        4172062.00000000        1570982.00000000     
   6465398.00000000        5544259.00000000        5746496.00000000     
   1663722.00000000        8752644.00000000        5782735.00000000     
   918080.000000000        3131634.00000000        3985716.00000000     
   3730596.00000000        2796877.00000000        7163687.00000000     
   3478132.00000000        5970608.00000000        7424312.00000000     
   1956084.00000000        8517860.00000000        3225099.00000000     
   1309920.00000000        3990027.00000000        5662919.00000000     
   6493295.00000000        2762873.00000000        6766713.00000000     
   1334390.00000000        6166087.00000000        8255199.00000000     
   1141624.00000000        726447.000000000        7144213.00000000     
   8624361.00000000        3335219.00000000        528234.000000000     
   4388059.00000000        3060335.00000000        3994275.00000000     
   1457984.00000000        5972017.00000000        5334263.00000000     
   3760628.00000000        4487637.00000000        2530838.00000000     
   2808240.00000000        3771827.00000000        4121205.00000000     
   3776230.00000000     
   8800000.00000000        1618033.00000000       0.000000000000000E+000
  1.136363636363636E-007   6599496.00000000        7073189.00000000     
           1          29           5
   3769220.00000000        5156497.00000000        2668429.00000000     
   1931446.00000000        7962835.00000000        2893321.00000000     
   2107696.00000000        465811.000000000        8440217.00000000     
   7294992.00000000        4197781.00000000        3822982.00000000     
   1924670.00000000        2430198.00000000        8037749.00000000     
   2780123.00000000        8622780.00000000        2791951.00000000     
   6129950.00000000        6612.00000000000        786291.000000000     
   814357.000000000        154171.000000000        5220536.00000000     
   314005.000000000        82007.0000000000        5562205.00000000     
   626223.000000000        6599496.00000000        5435720.00000000     
   6711203.00000000        3934848.00000000        1882037.00000000     
   2900451.00000000        1730688.00000000        3794120.00000000     
   6920654.00000000        6313319.00000000        1465537.00000000     
   5438225.00000000        195466.000000000        5846426.00000000     
   652277.000000000        7738537.00000000        2312687.00000000     
   675534.000000000        7806397.00000000        8371288.00000000     
   3458891.00000000        7367174.00000000        644974.000000000     
   25623.0000000000        5085970.00000000        3780823.00000000     
   2721980.00000000     
