          70          54
    1    0 0 1 1 1 1 0 1 0 1 0 1 1 1 0 1 0 0 1 1 0 0 0 1 0 1 0 1 1 1 1 1 1 1 1 1 1 1 0 0 1 0 0 0 0 1 1 1 1 1 1
    1    1 0 0 1 0 0 0 1 0 0 1 0 1 0 1 0 0 0 0 0 1 1 0 0 1 1 1 0 0 1 0 0 0 1 0 1 1 1 1 0 0 0 1 1 1 0 1 1 0 0 0
    1    1 0 0 0 0 0 1 1 1 1 0 0 0 1 1 0 0 0 1 1 0 1 1 0 0 1 0
    2    0 0 1 1 1 1 0 1 0 1 0 1 0 1 0 1 0 0 1 1 0 1 0 1 0 1 0 1 1 0 1 0 1 1 1 1 1 1 0 0 1 0 0 0 0 1 1 1 1 1 1
    1    1 0 0 1 0 1 0 1 0 0 1 0 1 0 1 0 0 0 0 0 0 1 0 0 0 1 1 0 0 1 0 0 1 1 0 1 1 1 1 0 0 0 1 1 1 0 1 1 0 0 0
    1    1 0 0 0 0 0 1 1 1 1 0 0 0 1 1 0 0 0 0 1 0 1 1 0 0 1 0
    3    0 0 1 1 1 0 0 1 0 1 0 1 0 1 0 1 0 0 1 1 0 0 0 1 0 1 0 1 1 0 1 1 1 1 1 1 1 1 0 0 1 0 0 0 0 1 1 1 1 1 1
    1    1 0 0 1 0 0 0 1 0 0 1 0 1 0 1 0 0 0 0 1 0 1 0 0 0 1 1 0 0 1 0 0 1 1 0 1 1 1 0 0 0 0 1 1 1 0 1 1 0 0 0
    1    1 0 0 0 0 0 1 1 1 1 0 0 0 1 1 0 0 1 1 1 0 1 1 0 0 1 0
    4    0 0 1 1 1 1 0 1 0 1 0 1 0 1 0 1 0 0 1 1 0 0 0 1 0 1 0 1 1 1 1 1 1 1 1 1 1 1 0 0 1 0 0 0 0 1 1 1 1 1 1
    1    1 0 0 1 0 1 0 1 0 0 1 0 1 0 1 0 0 0 0 1 1 1 0 0 1 1 1 0 0 1 0 0 0 1 0 1 1 1 1 0 0 0 1 1 1 0 1 1 0 0 0
    1    1 0 0 0 0 0 1 1 1 1 0 0 0 1 1 0 0 0 1 1 0 1 1 0 0 1 0
    5    0 0 1 1 1 1 0 1 0 1 0 1 0 1 0 1 0 0 1 1 0 1 0 1 0 1 0 1 1 0 1 0 1 1 1 1 1 1 0 0 1 0 0 0 0 1 1 1 1 1 1
    1    1 0 0 1 0 1 0 1 0 1 1 0 1 0 1 0 0 0 1 1 1 1 0 0 0 1 1 0 0 1 0 0 0 1 0 1 1 1 1 0 0 0 1 1 1 0 1 1 0 0 0
    1    1 0 0 0 0 0 1 1 1 1 0 0 0 1 1 0 0 1 0 1 0 1 1 0 0 1 0
    6    0 0 1 1 1 1 0 1 0 1 0 1 1 1 1 1 0 0 1 1 0 1 0 1 0 1 0 1 1 0 1 1 1 1 1 1 1 1 0 0 1 0 0 0 0 1 1 1 1 1 1
    1    1 0 0 1 0 1 0 1 0 0 1 0 1 0 1 0 0 0 0 0 0 1 0 0 1 1 1 0 0 1 0 0 0 1 0 1 1 1 1 0 0 0 1 1 1 0 1 1 0 0 0
    1    1 0 0 0 0 0 1 1 1 1 0 0 0 1 1 0 0 0 1 1 0 1 1 0 0 1 0
    7    0 0 1 1 1 1 0 1 0 1 0 1 0 1 0 1 0 0 1 1 0 0 0 1 0 1 0 1 1 0 1 0 1 1 1 1 1 1 0 0 1 0 0 0 0 1 1 1 1 1 1
    1    1 0 0 1 0 1 0 1 0 0 1 0 1 0 1 0 0 0 0 0 0 1 0 0 0 1 1 0 0 1 0 0 1 1 0 1 1 1 1 0 0 0 1 1 1 0 1 1 0 0 0
    1    1 0 0 0 0 0 1 1 1 1 0 0 0 1 1 0 0 0 1 1 0 1 1 0 0 1 0
    8    0 0 1 1 1 1 0 1 0 1 0 1 1 1 0 1 0 0 0 0 0 1 0 1 0 1 0 1 1 0 1 0 1 1 1 1 1 1 0 0 1 0 0 0 0 1 1 1 1 1 1
    1    1 0 0 1 0 1 0 1 0 0 0 0 1 0 1 0 0 0 0 1 1 1 0 0 0 1 1 0 0 1 0 0 1 1 0 1 1 1 1 0 0 0 1 1 1 0 1 1 0 0 0
    1    1 0 0 0 0 0 1 1 1 1 0 0 0 1 1 0 0 1 0 1 0 1 1 0 0 1 0
    9    0 0 1 1 1 1 0 1 0 1 0 1 0 1 0 1 0 0 1 1 0 1 0 1 0 1 0 1 1 0 1 0 1 1 1 1 1 1 0 0 1 0 0 0 0 1 1 1 1 1 1
    1    1 0 0 1 0 1 0 1 0 1 1 0 1 0 1 0 0 0 1 0 0 1 0 0 0 1 1 0 0 1 0 0 0 1 0 1 1 1 1 0 0 0 1 1 1 0 1 1 0 0 0
    1    1 0 0 0 0 0 1 1 1 1 0 0 0 1 1 0 0 1 0 1 0 1 1 0 0 1 0
   10    0 0 1 1 1 1 0 1 0 1 0 1 1 1 0 1 0 0 1 1 0 1 0 1 0 1 0 1 1 1 1 1 1 1 1 1 0 1 0 0 1 0 0 0 0 1 1 1 1 1 1
    1    1 0 0 1 0 0 0 1 0 0 1 0 1 0 1 0 0 0 0 1 0 1 0 0 0 1 1 0 0 1 0 0 0 1 0 1 1 1 1 0 0 0 1 1 1 0 1 1 0 0 0
    1    1 0 0 0 0 0 1 1 1 1 0 0 0 1 1 0 0 0 0 1 0 1 1 0 0 1 0
   11    0 0 1 1 1 1 0 1 0 1 0 0 1 1 0 1 0 0 1 1 0 0 0 1 0 1 0 1 1 1 1 1 1 1 1 1 1 1 0 0 1 0 0 0 0 1 1 1 1 1 1
    1    1 0 0 1 0 0 0 1 0 0 1 0 1 0 1 0 0 0 0 0 1 1 0 0 1 1 1 0 0 1 0 0 1 1 0 1 1 1 0 0 0 0 1 1 1 0 1 1 0 0 0
    1    1 0 0 0 0 0 1 1 1 1 0 0 0 1 1 0 0 0 0 1 0 1 1 0 0 1 0
   12    0 0 1 1 1 1 0 1 0 1 0 1 0 1 0 1 0 0 1 1 0 0 0 1 0 1 0 1 1 1 1 0 1 1 1 1 1 1 0 0 1 0 0 0 0 1 1 1 1 1 1
    1    1 0 0 1 0 1 0 1 0 0 1 0 1 0 1 0 0 0 0 0 1 1 0 0 1 1 1 0 0 1 0 0 1 1 0 1 1 1 1 0 0 0 1 1 1 0 1 1 0 0 0
    1    1 0 0 0 0 0 1 1 1 1 0 0 0 1 1 0 0 0 1 1 0 1 1 0 0 1 0
   13    0 0 1 1 1 1 0 1 0 1 0 1 0 1 0 1 0 0 1 0 0 1 0 1 0 1 0 1 1 1 1 1 1 1 1 1 1 1 0 0 1 0 0 0 0 1 1 1 1 1 1
    1    1 0 0 1 0 0 0 1 0 0 1 0 1 0 1 0 0 0 0 0 0 1 0 0 0 1 1 0 0 1 0 0 0 1 0 1 1 0 1 0 0 0 1 1 1 0 1 1 0 0 0
    1    1 0 0 0 0 0 1 1 1 1 0 0 0 1 1 0 0 0 0 1 0 1 1 0 0 1 0
   14    0 0 1 1 1 1 0 1 0 1 0 1 0 1 0 1 0 0 1 0 0 1 0 1 0 1 0 1 1 0 1 0 1 1 1 1 1 1 0 0 1 0 0 0 0 1 1 1 1 1 1
    1    1 0 0 1 0 1 0 1 0 0 1 0 1 0 1 0 0 0 0 1 1 1 0 0 0 1 1 0 0 1 0 0 1 1 0 1 1 1 1 0 0 0 1 1 1 0 1 1 0 0 0
    1    1 0 0 0 0 0 1 1 1 1 0 0 0 1 1 0 0 1 0 1 0 1 1 0 0 1 0
   15    0 0 1 1 1 1 0 1 0 1 0 1 1 1 0 1 0 0 1 1 0 1 0 1 0 1 0 1 1 1 1 1 1 1 1 1 1 1 0 0 1 0 0 0 0 1 1 1 1 1 1
    1    1 0 0 1 0 1 0 1 0 0 1 0 1 0 1 0 0 0 0 1 0 1 0 0 0 1 1 0 0 1 0 0 0 1 0 1 1 1 1 0 0 0 1 1 1 0 1 1 0 0 0
    1    1 0 0 0 0 0 1 1 1 1 0 0 0 1 1 0 0 0 0 1 0 1 1 0 0 1 0
   16    0 0 1 1 1 1 0 1 0 1 0 1 1 1 0 1 0 0 1 1 0 1 0 1 0 1 0 1 1 0 1 1 1 1 1 1 1 1 0 0 1 0 0 0 0 1 1 1 1 1 1
    1    1 0 0 1 0 0 0 1 0 0 1 0 1 0 1 0 0 0 0 1 0 1 0 0 0 1 1 0 0 1 0 0 1 1 0 1 1 1 1 0 1 0 1 1 1 0 1 1 0 0 0
    1    1 0 0 0 0 0 1 1 1 1 0 0 0 1 1 0 0 0 1 1 0 1 1 0 0 1 0
   17    0 0 1 1 1 1 0 1 0 1 0 1 1 1 0 1 0 0 1 1 0 0 0 1 0 1 0 1 1 0 1 0 1 1 1 1 1 1 0 0 1 0 0 0 0 1 1 1 1 1 1
    1    1 0 0 1 0 1 0 1 0 0 1 0 1 0 1 1 0 0 0 1 1 1 0 0 0 1 1 0 0 1 0 0 0 1 0 1 1 1 1 0 0 0 1 1 1 0 1 1 0 0 0
    1    1 0 0 0 0 0 1 1 1 1 0 0 0 1 1 0 0 0 0 1 0 1 1 0 0 1 0
   18    0 0 1 1 1 1 0 1 0 1 0 1 0 1 0 1 0 0 1 1 0 1 0 1 0 1 0 1 1 0 1 0 1 1 1 1 1 1 0 0 1 0 0 0 0 1 1 1 1 1 1
    1    1 0 0 1 0 1 0 1 0 0 1 0 1 0 1 0 0 0 0 1 1 1 0 0 0 1 1 0 0 1 0 0 0 1 0 1 1 1 1 0 0 0 1 1 1 0 1 1 0 0 0
    1    1 0 0 0 0 0 1 1 1 1 0 0 0 1 1 0 0 0 1 1 0 1 1 0 0 1 0
   19    0 0 1 1 1 1 0 1 0 1 0 1 1 1 0 1 0 0 1 1 0 1 0 1 0 1 0 1 1 1 1 1 1 1 1 1 1 1 0 0 1 0 0 0 0 1 1 1 1 1 1
    1    1 0 0 1 0 0 0 1 0 0 1 0 1 0 1 0 0 0 0 0 0 1 0 0 1 1 1 0 0 1 0 0 0 1 0 1 1 1 1 0 1 0 1 1 1 0 1 1 0 0 0
    1    1 0 0 0 0 0 1 1 1 1 0 0 0 1 1 0 0 0 1 1 0 1 1 0 0 1 0
   20    0 0 1 1 1 1 0 1 0 1 0 1 0 1 0 1 0 0 1 0 0 1 0 1 0 1 0 1 0 0 1 0 1 1 1 1 1 1 0 0 1 0 0 0 0 1 1 1 1 1 1
    1    1 0 0 1 0 1 0 1 0 0 1 0 1 0 1 0 0 0 0 0 1 1 0 0 0 1 1 0 0 1 0 0 1 0 0 1 1 1 0 0 0 0 1 1 1 0 1 1 0 0 0
    1    1 0 0 0 0 0 1 1 1 1 0 0 0 1 0 0 0 0 0 1 0 1 1 0 0 1 0
   21    0 0 1 1 1 1 0 1 0 1 0 1 1 1 0 1 0 0 0 0 0 1 0 1 0 1 0 1 1 0 1 0 1 1 1 1 1 1 0 0 1 0 0 0 0 1 1 1 1 1 1
    1    1 0 0 1 0 1 0 1 0 0 1 0 1 0 1 0 0 0 0 1 0 1 0 0 0 1 1 0 0 1 0 0 1 1 0 1 1 0 0 0 0 0 1 1 1 0 1 1 0 0 0
    1    1 0 0 0 0 0 1 1 1 1 0 0 0 1 1 0 0 1 1 1 0 1 1 0 0 1 0
   22    0 0 1 1 1 0 0 1 0 1 0 1 1 1 0 1 0 0 1 1 0 1 0 1 0 1 0 1 1 1 1 0 1 1 1 1 1 1 0 0 1 0 0 0 0 1 1 1 1 1 1
    1    1 0 0 1 0 1 0 1 0 0 1 0 1 0 1 0 0 0 0 1 0 1 0 0 1 1 1 0 0 1 0 0 1 1 0 1 1 1 1 0 1 0 1 1 1 0 1 1 0 0 0
    1    1 0 0 0 0 0 1 1 1 1 1 0 0 1 1 0 0 0 1 1 0 1 1 0 0 1 0
   23    0 0 1 1 1 1 0 1 0 1 0 1 1 1 1 1 0 0 1 1 0 0 0 1 0 1 0 1 1 1 1 1 1 1 1 1 1 1 0 0 1 0 0 0 0 1 1 1 1 1 1
    1    1 0 0 1 0 0 0 1 0 0 1 0 1 0 1 0 0 0 0 0 0 1 0 0 1 1 1 0 0 1 0 0 0 1 0 1 1 1 1 0 0 0 1 1 1 0 1 1 0 0 0
    1    1 0 0 0 0 0 1 1 1 1 0 0 0 1 1 0 0 0 1 1 0 1 1 0 0 1 0
   24    0 0 1 1 1 1 0 1 0 1 0 1 0 1 0 1 0 0 1 1 0 1 0 1 0 1 0 1 1 0 1 1 1 1 1 1 1 1 0 0 1 0 0 0 0 1 1 1 1 1 1
    1    1 0 0 1 0 1 0 1 0 0 1 0 1 0 1 0 0 0 0 0 0 1 0 0 0 1 1 0 0 1 0 0 1 1 0 1 1 1 1 0 0 1 1 1 1 0 1 1 0 0 0
    1    1 0 0 0 0 0 1 1 1 1 0 0 0 1 1 0 0 0 1 1 0 1 1 0 0 1 0
   25    0 0 1 1 1 1 0 1 0 1 0 1 0 1 0 1 0 0 1 1 0 1 0 1 0 1 0 1 1 0 1 0 1 1 1 1 1 1 0 0 1 0 0 0 0 1 1 1 1 1 1
    1    1 0 0 1 0 1 0 1 0 0 1 0 1 0 1 0 0 0 0 1 0 1 0 0 0 1 1 0 0 1 0 0 0 1 0 1 1 1 1 0 0 0 1 1 1 0 1 1 0 0 0
    1    1 0 0 0 0 0 1 1 1 1 0 0 0 1 1 0 0 1 0 1 0 1 1 0 0 1 0
   26    0 0 1 1 1 1 0 1 0 1 0 0 1 1 0 1 0 0 1 1 0 1 0 1 0 1 0 1 1 0 1 0 1 1 1 1 1 1 0 0 1 0 0 0 0 1 1 1 1 1 1
    1    1 0 0 1 0 0 0 1 0 0 1 0 0 0 1 0 0 0 0 1 0 1 0 0 0 1 1 0 0 1 0 0 1 1 1 1 1 0 0 0 1 0 1 1 1 0 1 1 0 0 0
    1    1 0 0 0 0 0 1 1 1 1 0 0 0 1 1 0 0 0 1 1 0 1 1 0 0 1 0
   27    0 0 1 1 1 1 0 1 0 1 0 1 1 1 0 1 0 0 1 1 0 1 0 1 0 1 0 1 1 0 1 0 1 1 1 1 1 1 0 0 1 0 0 0 0 1 1 1 1 1 1
    1    1 0 0 1 0 0 0 1 0 0 1 0 1 0 1 0 0 0 0 0 1 1 0 0 1 1 1 0 0 1 0 0 0 1 0 1 1 1 0 0 0 0 1 1 1 0 1 1 0 0 0
    1    1 0 0 0 0 0 1 1 1 1 0 0 0 1 0 0 0 0 1 1 0 1 1 0 0 1 0
   28    0 0 1 1 1 1 0 1 0 1 0 1 0 1 0 1 0 0 1 1 0 0 0 1 0 1 0 1 1 0 1 0 1 1 1 1 1 1 0 0 1 0 0 0 0 1 1 1 1 1 1
    1    1 0 0 1 0 1 0 1 0 0 1 0 1 0 1 0 0 0 0 0 0 1 0 0 0 1 1 0 0 1 0 0 1 1 0 1 1 1 1 0 0 0 1 1 1 0 1 1 0 0 0
    1    1 0 0 0 0 0 1 1 1 1 0 0 0 1 1 0 0 0 1 1 0 1 1 0 0 1 0
   29    0 0 1 1 1 1 0 1 0 1 0 1 0 1 1 1 0 0 1 1 0 1 0 1 0 1 0 1 1 0 1 0 1 1 1 1 1 1 0 0 1 0 0 0 0 1 1 1 1 1 1
    1    1 0 0 1 0 1 0 1 0 1 1 0 1 0 1 0 0 0 1 1 0 1 0 0 1 1 1 0 0 1 0 0 0 1 0 1 1 1 1 0 0 0 1 1 1 0 1 1 0 0 0
    1    1 0 0 0 0 0 1 1 1 1 0 0 0 1 1 0 0 1 1 1 0 1 1 0 0 1 0
   30    0 0 1 1 1 1 0 1 0 1 0 1 0 1 0 1 0 0 1 1 0 1 0 1 0 1 0 1 0 0 1 0 1 1 1 1 1 1 0 0 1 0 0 0 0 1 1 1 1 1 1
    1    1 0 0 1 0 1 0 1 0 0 1 1 1 0 1 0 0 0 0 0 0 1 0 0 0 1 1 0 0 1 0 0 0 0 0 1 1 1 1 0 0 0 1 1 1 0 1 1 0 0 0
    1    1 0 0 0 0 0 1 1 1 1 0 0 0 1 0 0 0 1 0 1 0 1 1 0 0 1 0
   31    0 0 1 1 1 0 0 1 0 1 0 1 1 1 0 1 0 0 0 1 0 1 0 1 0 1 0 1 1 1 1 0 1 1 1 1 1 1 0 0 1 0 0 0 0 1 1 1 1 1 1
    1    1 0 0 1 0 1 0 1 0 0 1 0 1 0 1 0 0 0 0 1 0 1 0 0 0 1 1 0 0 1 0 0 0 1 0 1 1 0 0 0 1 0 1 1 1 0 1 1 0 0 0
    1    1 0 0 0 0 0 1 1 1 1 0 0 0 1 1 0 0 1 1 1 0 1 1 0 0 1 0
   32    0 0 1 1 1 1 0 1 0 1 0 1 1 1 0 1 0 0 1 0 0 1 0 1 0 1 0 1 1 0 1 0 1 1 1 1 1 1 0 0 1 0 0 0 0 1 1 1 1 1 1
    1    1 0 0 1 0 1 0 1 0 0 1 0 1 0 1 0 0 0 0 1 0 1 0 0 1 1 1 0 0 1 0 0 1 1 0 1 1 1 1 0 0 0 1 1 1 0 1 1 0 0 0
    1    1 0 0 0 0 0 1 1 1 1 1 0 0 1 1 0 0 0 1 1 0 1 1 0 0 1 0
   33    0 0 1 1 1 1 0 1 0 1 0 1 0 1 0 1 0 0 1 0 0 1 0 1 0 1 0 1 1 0 1 0 1 1 1 1 1 1 0 0 1 0 0 0 0 1 1 1 1 1 1
    1    1 0 0 1 0 1 0 1 0 0 1 0 1 0 1 0 0 0 0 1 1 1 0 0 0 1 1 0 0 1 0 0 1 1 0 1 1 1 1 0 0 0 1 1 1 0 1 1 0 0 0
    1    1 0 0 0 0 0 1 1 1 1 0 0 0 1 1 0 0 1 0 1 0 1 1 0 0 1 0
   34    0 0 1 1 1 1 0 1 0 1 0 1 0 1 0 1 0 0 1 0 0 1 0 1 0 1 0 1 1 0 1 0 1 1 1 1 1 1 0 0 1 0 0 0 0 1 1 1 1 1 1
    1    1 0 0 1 0 1 0 1 0 0 1 0 1 0 1 0 0 0 0 1 1 1 0 0 0 1 1 0 0 1 0 0 1 1 0 1 1 1 1 0 0 0 1 1 1 0 1 1 0 0 0
    1    1 0 0 0 0 0 1 1 1 1 0 0 0 1 1 0 0 1 0 1 0 1 1 0 0 1 0
   35    0 0 1 1 1 1 0 1 0 1 0 0 1 1 0 1 0 0 1 1 0 1 0 1 0 1 0 1 1 1 1 1 1 1 0 1 1 1 0 0 1 0 0 0 0 1 1 1 1 1 1
    1    1 0 0 1 0 0 0 1 0 0 1 0 1 0 1 0 0 0 0 0 1 1 0 0 1 1 1 0 0 1 0 0 0 1 0 1 1 1 0 0 1 0 1 1 1 0 1 1 0 0 0
    1    1 0 0 0 0 0 1 1 1 1 0 0 0 1 1 0 0 0 1 1 0 1 1 0 0 1 0
   36    0 0 1 1 1 1 0 1 0 1 0 1 0 1 0 1 0 0 1 1 0 1 0 1 0 1 0 1 1 0 1 0 1 1 1 1 1 1 0 0 1 0 0 0 0 1 1 1 1 1 1
    1    1 0 0 1 0 1 0 1 0 0 1 0 1 0 1 0 0 0 0 0 0 1 0 0 0 1 1 0 0 1 0 0 1 1 0 1 1 1 1 0 0 0 1 1 1 0 1 1 0 0 0
    1    1 0 0 0 0 0 1 1 1 1 0 0 0 1 1 0 0 0 1 1 0 1 1 0 0 1 0
   37    0 0 1 1 1 0 0 1 0 1 0 1 1 1 0 1 0 0 1 1 0 1 0 1 0 1 0 1 1 0 1 0 1 1 1 1 1 1 0 0 1 0 0 0 0 1 1 1 1 1 1
    1    1 0 0 1 0 0 0 1 0 0 1 0 1 0 1 0 0 0 0 1 1 1 0 0 0 1 1 0 0 1 0 0 0 1 0 1 1 1 0 0 0 0 1 1 1 0 1 1 0 0 0
    1    1 0 0 0 0 0 1 1 1 1 0 0 0 1 1 0 0 1 0 1 0 1 1 0 0 1 0
   38    0 0 1 1 1 1 0 1 0 1 0 1 0 1 0 1 0 0 1 1 0 1 0 1 0 1 0 1 1 0 1 0 1 1 1 1 1 1 0 0 1 0 0 0 0 1 1 1 1 1 1
    1    1 0 0 1 0 1 0 1 0 0 1 0 1 0 1 0 0 0 0 1 0 1 0 0 0 1 1 0 0 1 0 0 1 1 0 1 1 1 1 0 0 0 1 1 1 0 1 1 0 0 0
    1    1 0 0 0 0 0 1 1 1 1 0 0 0 1 1 0 0 1 0 1 0 1 1 0 0 1 0
   39    0 0 1 1 1 1 0 1 0 1 0 1 1 1 0 1 0 0 1 1 0 0 0 1 0 1 0 1 1 1 1 0 1 1 1 1 1 1 0 0 1 0 0 0 0 1 1 1 1 1 1
    1    1 0 0 1 0 0 0 1 0 0 1 0 1 0 1 0 0 0 0 0 1 1 0 0 1 1 1 0 0 1 0 0 0 1 0 1 1 1 0 0 0 0 1 1 1 0 1 1 0 0 0
    1    1 0 0 0 0 0 1 1 1 1 0 0 0 1 0 0 0 0 0 1 0 1 1 0 0 1 0
   40    0 0 1 1 1 1 0 1 0 1 0 1 1 1 0 1 0 0 1 1 0 0 0 1 0 1 0 1 1 0 1 0 1 1 1 1 1 1 0 0 1 0 0 0 0 1 1 1 1 1 1
    1    1 0 0 1 0 0 0 1 0 0 1 0 1 0 1 0 0 0 0 0 1 1 0 0 1 1 1 0 0 1 0 0 0 1 0 1 1 1 0 0 1 0 1 1 1 0 1 1 0 0 0
    1    1 0 0 0 0 0 1 1 1 1 0 0 0 1 0 0 0 0 0 1 0 1 1 0 0 1 0
   41    0 0 1 1 1 1 0 1 0 1 0 1 1 1 0 1 0 0 0 1 0 1 0 1 0 1 0 1 1 0 1 0 1 1 1 1 1 1 0 0 1 0 0 0 0 1 1 1 1 1 1
    1    1 0 0 1 0 1 0 1 0 0 0 0 1 0 1 0 0 0 0 1 0 1 0 0 0 1 1 0 0 1 0 0 1 1 0 1 1 1 1 0 0 0 1 1 1 0 1 1 0 0 0
    1    1 0 0 0 0 0 1 1 1 1 0 0 0 1 1 0 0 1 0 1 0 1 1 0 0 1 0
   42    0 0 1 1 1 1 0 1 0 1 0 0 0 1 0 1 0 0 1 1 0 1 0 1 0 1 0 1 1 0 1 1 1 1 1 0 1 1 0 0 1 0 0 0 0 1 1 1 1 1 1
    1    1 0 0 1 0 0 0 1 0 1 1 0 1 0 1 0 0 0 1 0 1 1 0 0 1 1 1 0 0 1 0 0 1 1 0 1 1 1 0 0 0 0 1 1 1 0 1 1 0 0 0
    1    1 0 0 0 0 0 1 1 1 1 0 0 0 1 1 0 0 1 0 1 0 1 1 0 0 1 0
   43    0 0 1 1 1 1 0 1 0 1 0 0 0 1 0 1 0 0 1 0 0 0 0 1 0 1 0 1 1 1 1 1 1 1 1 1 1 1 0 0 1 0 0 0 0 1 1 1 1 1 1
    1    1 0 0 1 0 0 0 1 0 0 1 0 1 0 1 0 0 0 0 0 1 1 0 0 0 1 1 0 0 1 0 0 0 1 0 0 1 0 0 0 0 0 1 1 1 0 1 1 0 0 0
    1    1 0 0 0 0 0 1 1 1 1 0 0 0 1 1 0 0 0 0 1 0 1 1 0 0 1 0
   44    0 0 1 1 1 1 0 1 0 1 0 1 1 1 0 1 0 0 1 1 0 1 0 1 0 1 0 1 1 1 1 1 1 1 1 1 1 1 0 0 1 0 0 0 0 1 1 1 1 1 1
    1    1 0 0 1 0 0 0 1 0 0 1 0 1 0 1 0 0 0 0 0 0 1 0 0 1 1 1 0 0 1 0 0 1 0 0 1 1 1 1 0 0 0 1 1 1 0 1 1 0 0 0
    1    1 0 0 0 0 0 1 1 1 1 0 0 0 1 1 0 0 0 0 1 0 1 1 0 0 1 0
   45    0 0 1 1 1 1 0 1 0 1 0 0 0 1 0 1 0 0 1 0 0 1 0 1 0 1 0 1 1 0 1 1 1 1 1 1 1 1 0 0 1 0 0 0 0 1 1 1 1 1 1
    1    1 0 0 1 0 0 0 1 0 0 1 0 1 0 1 0 0 0 0 1 0 1 0 0 0 1 1 0 0 1 0 0 1 1 0 1 1 0 0 0 0 0 1 1 1 0 1 1 0 0 0
    1    1 0 0 0 0 0 1 1 1 1 0 0 0 1 1 0 0 1 1 0 0 1 1 0 0 1 0
   46    0 0 1 1 1 1 0 1 0 1 0 1 1 1 1 1 0 0 1 1 0 0 0 1 0 1 0 1 1 0 1 0 1 1 1 1 1 1 0 0 1 0 0 0 0 1 1 1 1 1 1
    1    1 0 0 1 0 1 1 1 0 0 1 0 1 0 1 0 0 0 0 0 1 1 0 0 1 1 1 0 0 1 0 0 0 1 0 1 1 1 0 0 0 0 1 1 1 0 1 1 0 0 0
    1    1 0 0 0 0 0 1 1 1 1 0 0 0 1 0 0 0 0 0 1 0 1 1 0 0 1 0
   47    0 0 1 1 1 1 0 1 0 1 0 1 1 1 0 1 0 0 1 1 0 1 0 1 0 1 0 1 1 0 1 1 1 1 1 1 0 1 0 0 1 0 0 0 0 1 1 1 1 1 1
    1    1 0 0 1 0 1 0 1 0 0 1 0 1 0 1 0 0 0 0 1 0 1 0 0 0 1 1 0 0 1 0 0 1 1 0 1 1 1 1 0 0 0 1 1 1 0 1 1 0 0 0
    1    1 0 0 0 0 0 1 1 1 1 0 0 0 1 1 0 0 1 0 1 0 1 1 0 0 1 0
   48    0 0 1 1 1 1 0 1 0 1 0 1 0 1 0 1 0 0 1 1 0 1 0 1 0 1 0 1 1 1 1 0 1 1 1 1 1 1 0 0 1 0 0 0 0 1 1 1 1 1 1
    1    1 0 0 1 0 0 0 1 0 0 1 0 1 0 1 0 0 0 0 1 0 1 0 0 0 1 1 0 0 1 0 0 0 1 0 1 1 1 1 0 0 0 1 1 1 0 1 1 0 0 0
    1    1 0 0 0 0 0 1 1 1 1 0 0 0 1 1 0 1 0 0 1 0 1 1 0 0 1 0
   49    0 0 1 1 1 1 0 1 0 1 0 1 1 1 1 1 1 0 1 1 0 0 0 1 0 1 0 1 1 1 1 1 1 1 1 1 1 1 0 0 1 0 0 0 0 1 1 1 1 1 1
    1    1 0 0 1 0 0 0 1 0 0 1 0 1 0 1 0 0 1 0 0 1 1 0 0 1 1 1 0 0 1 0 0 1 1 0 1 1 1 1 0 0 0 1 1 1 0 1 1 0 0 0
    1    1 0 0 0 0 0 1 1 1 1 0 0 0 1 1 0 0 0 1 1 0 1 1 0 0 1 0
   50    0 0 1 1 1 1 0 1 0 1 0 0 1 1 0 1 0 0 1 1 0 1 0 1 0 1 0 1 1 1 1 1 1 1 1 1 1 1 0 0 1 0 0 0 0 1 1 1 1 1 1
    1    1 0 0 1 0 0 0 1 0 1 1 0 1 0 1 0 0 0 1 0 1 0 0 0 1 1 1 0 0 1 0 0 1 1 0 1 1 1 1 0 0 0 1 1 1 0 1 1 0 0 0
    1    1 0 0 0 0 0 1 1 1 1 0 0 0 1 1 0 0 0 0 1 0 1 1 0 0 1 0
   51    0 0 1 1 1 1 0 1 0 1 0 0 1 1 0 1 0 0 1 1 0 1 0 1 0 1 0 1 1 0 1 1 1 1 1 1 1 1 0 0 1 0 0 0 0 1 1 1 1 1 1
    1    1 0 0 0 0 1 0 1 0 0 1 0 1 0 1 0 0 0 0 0 1 1 0 1 1 1 1 0 0 1 0 0 1 1 0 1 1 1 0 0 0 0 1 1 1 0 1 1 0 1 0
    1    1 0 0 0 0 0 1 1 1 1 0 0 0 1 1 0 0 0 0 1 0 1 1 0 0 1 0
   52    0 0 1 1 1 1 0 1 0 1 0 1 0 1 0 1 0 0 1 1 0 1 0 1 0 1 0 1 1 0 1 0 1 1 1 1 1 1 0 0 1 0 0 0 0 1 1 1 1 1 1
    1    1 0 0 1 0 0 0 1 0 0 1 0 1 0 1 0 0 0 1 0 1 1 0 0 0 1 1 0 0 1 0 0 1 1 0 1 1 1 1 0 0 0 1 1 1 0 1 1 0 0 1
    1    1 0 0 0 0 0 1 1 1 1 0 0 0 1 1 0 0 0 1 1 0 1 1 0 0 1 0
   53    0 0 1 1 1 1 0 1 0 1 0 1 0 1 0 1 0 0 1 1 0 0 0 1 0 1 0 1 1 1 1 0 1 1 1 1 1 1 0 0 1 0 0 0 0 1 1 1 1 1 1
    1    1 0 0 1 0 0 0 1 0 0 1 0 1 0 1 0 0 0 0 0 1 1 0 0 0 1 1 0 0 1 0 0 1 1 0 1 1 1 1 0 0 0 1 1 1 0 1 1 0 0 1
    1    1 0 0 0 0 0 1 1 1 1 0 0 0 1 1 0 0 0 1 1 0 1 1 0 0 1 0
   54    0 0 1 1 1 1 0 1 0 1 0 1 1 1 0 0 0 0 1 1 0 0 0 1 0 1 0 1 1 1 1 0 1 1 1 1 1 1 0 0 1 0 0 0 0 1 1 1 1 1 1
    1    1 0 0 1 0 0 0 1 0 0 1 0 1 0 1 0 0 0 0 0 1 1 0 0 0 1 1 0 0 1 0 0 0 1 0 1 1 1 1 1 0 0 1 1 1 0 1 1 0 0 1
    1    1 0 0 0 0 0 1 1 1 1 0 0 0 1 1 0 0 0 0 1 0 1 1 0 0 1 0
   8800000.00000000        1618033.00000000       0.000000000000000E+000
  1.136363636363636E-007   6425408.00000000        6524285.00000000     
           1          19          50
   5412884.00000000        1741651.00000000        8369621.00000000     
   704293.000000000        8498937.00000000        1927895.00000000     
   8312021.00000000        1134518.00000000        7498402.00000000     
   6594268.00000000        4705178.00000000        2504472.00000000     
   994766.000000000        650226.000000000        4850405.00000000     
   5008386.00000000        1538365.00000000        3508083.00000000     
   6425408.00000000        3895860.00000000        852733.000000000     
   1006250.00000000        2838692.00000000        2359183.00000000     
   4287885.00000000        5041220.00000000        742879.000000000     
   7199469.00000000        8114740.00000000        3032395.00000000     
   1675033.00000000        4877702.00000000        8620584.00000000     
   5896501.00000000        6106282.00000000        4662415.00000000     
   4742391.00000000        1904422.00000000        8031860.00000000     
   6990178.00000000        6658615.00000000        6554754.00000000     
   4476683.00000000        840892.000000000        1402507.00000000     
   1120109.00000000        1785498.00000000        4367068.00000000     
   7223482.00000000        8061320.00000000        4152315.00000000     
   5226307.00000000        4813796.00000000        424853.000000000     
   8303552.00000000     
   8800000.00000000        1618033.00000000       0.000000000000000E+000
  1.136363636363636E-007   7379179.00000000        1667309.00000000     
           1          37          13
   5704738.00000000        7414451.00000000        3909317.00000000     
   5917009.00000000        994664.000000000        3567152.00000000     
   2298627.00000000        2127838.00000000        7003882.00000000     
   6406834.00000000        1798922.00000000        6381876.00000000     
   2790011.00000000        612368.000000000        5307352.00000000     
   7170452.00000000        4480708.00000000        6926997.00000000     
   3506072.00000000        4931254.00000000        3349815.00000000     
   5829000.00000000        2197328.00000000        1288569.00000000     
   7454468.00000000        2315766.00000000        5587713.00000000     
   6304394.00000000        2199661.00000000        4456965.00000000     
   1763988.00000000        3084734.00000000        8335242.00000000     
   206516.000000000        3966189.00000000        709152.000000000     
   7379179.00000000        2885134.00000000        1798684.00000000     
   2828990.00000000        3238911.00000000        8551063.00000000     
   6813840.00000000        7053116.00000000        7647488.00000000     
   8021077.00000000        4489557.00000000        8495032.00000000     
   5760586.00000000        8199593.00000000        3807143.00000000     
   6837768.00000000        3641114.00000000        1186080.00000000     
   3696569.00000000     
