          47          54   1.00000000000000     
    1       2    0 1 0 1 0 0 0 1 1 0 0 0 1 1 0 1 1 0 1 0 1 0 1 1 1 0 1 0 0 0 1 1 0 1 1 0 0 1 1 1 1 1 1 0 0 0 0 1 1 0 0
    1       0    1 0 0 0 0 0 0 1 0 1 0 0 1 0 0 0 0 1 0 0 0 1 0 0 1 1 0 0 0 0 0 0 0 0 1 0 1 0 0 0 0 1 0 1 1 1 1 1 1 0 0
    1       0    0 1 1 1 1 1 0 1 1 1 1 1 1 0 0 1 1 1 0 1 1 0 0 1 1
    2       2    0 1 0 1 0 0 0 1 1 0 0 0 1 1 0 1 1 0 1 0 1 0 1 0 1 0 1 0 0 0 1 1 0 1 1 0 0 1 1 1 1 1 1 0 0 0 0 1 1 0 0
    1       0    1 0 0 0 0 0 0 1 0 1 0 0 1 0 0 0 0 1 0 0 0 1 0 0 1 1 0 0 0 0 0 0 1 0 1 0 1 0 0 0 0 1 0 1 1 1 1 1 1 0 0
    1       0    0 1 1 1 1 1 0 1 1 1 1 1 1 0 0 1 1 1 0 1 1 0 0 1 1
    3       2    0 1 0 1 0 0 0 1 1 0 0 0 1 1 0 1 1 0 1 0 1 1 1 0 1 0 1 0 0 0 1 1 0 1 1 0 1 1 1 1 1 1 1 0 0 0 0 1 1 0 0
    1       0    1 0 0 0 1 0 0 1 0 1 0 0 1 0 1 1 0 1 0 0 0 1 0 0 1 1 0 0 0 0 0 0 0 0 1 0 1 0 0 0 0 1 0 1 1 1 1 1 1 0 1
    1       0    0 1 1 1 1 1 0 0 1 1 1 1 1 0 0 1 1 0 0 1 1 0 0 1 1
    4       2    0 1 0 1 0 0 0 1 1 0 0 0 1 1 0 1 1 0 1 0 1 0 1 0 1 0 1 0 0 0 1 1 0 1 0 0 1 1 1 1 1 1 1 0 0 0 0 1 1 0 0
    1       0    1 0 0 0 0 0 0 1 0 1 1 0 1 0 1 1 0 1 0 0 0 1 0 0 1 1 0 0 0 0 0 0 0 0 1 0 1 0 0 0 0 1 0 1 1 1 1 1 1 0 1
    1       0    0 1 1 1 1 1 0 0 1 1 1 1 1 0 0 1 1 0 0 1 1 0 0 1 1
    5       2    0 1 0 1 0 0 0 1 1 0 0 0 1 1 0 1 1 0 1 1 1 0 0 0 1 0 1 0 0 0 1 1 0 1 1 0 1 1 1 1 1 1 1 0 0 0 0 1 1 0 0
    1       0    1 0 0 0 1 0 0 1 0 1 0 0 1 0 1 0 0 1 0 0 0 1 0 1 1 1 0 0 0 0 0 0 0 0 1 0 1 0 0 0 0 1 0 1 1 1 1 1 1 0 1
    1       0    0 1 1 1 1 1 0 0 1 1 1 1 1 0 0 1 1 0 0 1 1 0 0 1 1
    6       2    0 1 0 1 0 0 0 1 1 0 0 0 1 1 0 1 1 0 1 1 1 1 1 0 1 0 1 0 0 0 1 1 0 1 1 0 1 1 1 1 1 1 1 0 0 0 0 1 1 0 0
    1       0    1 0 0 0 0 0 0 1 0 1 1 0 1 0 1 1 0 1 0 0 0 1 0 0 1 1 0 0 0 0 0 0 0 0 1 1 1 0 0 1 0 1 0 1 1 1 1 1 1 0 1
    1       0    0 1 1 1 1 1 0 0 1 0 1 1 1 0 0 1 1 0 0 1 1 0 0 1 1
    7       2    0 1 0 1 0 0 0 1 1 0 0 0 1 1 0 1 0 0 1 0 1 1 1 0 1 0 1 0 0 0 1 1 0 1 1 0 1 1 1 1 1 1 1 0 0 0 0 1 1 0 0
    1       0    1 0 0 0 1 0 0 1 0 1 1 0 1 0 1 1 0 1 0 0 0 1 0 0 1 1 0 0 0 0 0 0 0 0 1 0 1 0 1 0 0 1 0 1 1 1 1 1 1 0 1
    1       0    0 1 1 1 1 1 0 0 1 1 1 1 0 0 0 1 1 0 0 1 1 0 0 1 1
    8       2    0 1 0 1 0 0 0 1 1 0 0 0 1 1 0 0 0 0 1 1 0 0 1 0 1 0 1 0 0 0 1 1 0 1 1 0 1 1 1 1 1 1 1 0 0 0 0 1 1 0 0
    1       0    1 0 0 0 1 0 0 1 0 1 0 0 1 0 1 1 0 1 0 0 0 1 0 1 1 1 0 0 0 0 0 0 0 0 1 1 1 0 0 0 0 1 0 1 1 1 1 1 1 0 1
    1       0    0 1 1 1 1 1 0 0 1 1 1 1 0 0 0 1 1 0 0 1 1 0 0 1 1
    9       2    0 1 0 1 0 0 0 1 1 0 0 0 1 1 0 1 1 0 1 0 1 1 1 0 1 0 1 0 0 0 1 1 0 1 1 0 1 1 1 1 1 1 1 0 0 0 0 1 1 0 0
    1       0    1 0 0 0 0 0 0 0 0 1 0 0 1 0 1 0 0 1 0 0 0 1 0 0 1 1 0 0 0 0 0 0 0 0 1 0 1 0 0 0 0 1 0 1 1 1 1 1 1 0 1
    1       0    0 1 1 1 1 1 0 0 0 1 1 1 1 0 0 1 1 0 0 1 1 0 0 1 1
   10       2    0 1 0 1 0 0 0 1 1 0 0 0 1 1 0 1 1 0 1 0 1 1 1 0 1 0 1 0 1 0 1 1 0 1 1 0 1 1 1 1 1 1 1 0 0 0 0 1 1 0 0
    1       0    1 0 0 0 0 0 0 1 0 1 1 0 1 0 1 1 1 1 0 0 0 1 0 0 1 1 0 0 0 0 0 0 0 0 1 0 1 0 0 0 0 1 0 1 1 1 1 1 1 0 1
    1       0    0 1 1 1 1 1 0 0 1 1 1 1 1 0 0 1 1 0 0 1 1 0 0 1 1
   11       2    0 1 0 1 0 0 0 1 1 0 0 0 1 1 0 1 1 0 1 0 0 0 0 0 1 0 1 0 0 0 1 1 0 1 1 0 1 1 1 1 1 1 1 0 0 0 0 1 1 0 0
    1       0    1 0 0 0 0 0 0 1 0 1 0 0 1 0 1 1 0 1 0 0 0 1 0 0 1 1 0 0 0 0 0 0 0 0 1 0 1 0 0 0 0 1 0 1 1 1 1 1 1 0 1
    1       0    0 1 1 1 1 1 0 0 1 1 1 1 1 0 0 1 1 1 0 1 1 0 0 1 1
   12       2    0 1 0 1 0 0 0 1 1 0 0 0 1 1 0 1 1 0 1 1 1 1 1 0 1 0 1 0 0 0 1 1 0 0 1 0 1 1 1 1 1 1 1 0 0 0 0 1 1 0 0
    1       0    1 0 0 0 0 0 0 1 0 1 1 0 1 0 1 1 0 1 0 0 0 1 0 0 1 1 0 0 0 0 0 0 1 0 1 1 1 0 0 1 0 1 0 1 1 1 1 1 1 0 1
    1       0    0 1 1 1 1 1 0 0 1 0 1 1 1 0 0 1 1 0 0 1 1 0 0 1 1
   13       2    0 1 0 1 0 0 0 1 1 0 0 0 1 0 0 1 1 0 1 0 1 0 1 0 1 0 1 0 0 0 1 1 0 1 0 0 0 1 1 1 1 1 1 0 0 0 0 1 1 0 0
    1       0    1 0 0 1 0 0 0 1 0 1 1 0 1 0 0 0 0 1 0 0 0 1 0 0 1 1 0 0 0 0 0 0 0 0 1 0 1 0 0 0 1 1 0 1 1 1 1 1 1 0 0
    1       0    0 1 1 1 1 1 0 0 1 1 1 1 0 0 0 1 1 0 0 1 1 0 0 1 1
   14       2    0 1 0 1 0 0 0 1 1 0 0 0 1 1 0 1 1 0 1 0 1 0 1 1 1 0 0 1 0 0 1 1 0 1 0 0 0 1 1 1 1 1 1 0 0 0 0 1 1 0 0
    1       0    1 0 0 1 0 0 0 1 0 1 0 0 1 0 1 0 0 1 0 0 0 1 0 1 1 1 0 0 0 0 0 0 0 1 1 0 1 0 0 0 0 1 0 1 1 1 1 1 1 0 0
    1       0    0 1 1 1 1 1 0 0 1 1 0 1 0 0 0 1 1 0 0 1 1 0 0 1 1
   15       2    0 1 0 1 0 0 0 1 1 0 0 0 1 1 0 0 1 0 1 1 1 0 1 0 1 0 1 0 0 0 1 1 0 1 1 0 1 1 1 1 1 1 1 0 0 0 0 1 1 0 0
    1       0    1 0 0 1 0 0 0 1 0 1 0 0 1 0 0 1 0 1 0 0 0 1 0 0 1 1 0 0 0 0 0 0 0 0 1 0 1 0 0 0 0 1 0 1 1 1 1 1 1 0 0
    1       0    0 1 1 1 1 1 0 0 1 1 0 1 1 0 0 1 1 0 0 1 1 0 0 1 1
   16       2    0 1 0 1 0 0 0 1 1 0 0 0 1 1 0 1 1 0 1 0 1 0 1 0 1 0 1 0 0 0 1 1 0 1 1 0 1 1 1 1 1 1 1 0 0 0 0 1 1 0 0
    1       0    1 0 0 0 0 0 0 1 0 1 1 0 1 0 1 1 0 1 0 0 0 1 0 0 1 1 0 0 0 0 0 0 0 0 1 0 1 0 0 0 0 1 0 1 1 1 1 1 1 0 1
    1       0    0 1 1 1 1 1 0 1 1 1 1 1 1 0 0 1 1 0 0 1 1 0 0 1 1
   17       2    0 1 0 1 0 0 0 1 1 0 0 0 1 1 0 1 1 0 1 1 1 0 1 0 1 0 1 0 0 0 1 1 0 1 1 0 1 1 1 1 1 1 1 0 0 0 0 1 1 0 0
    1       0    1 0 0 0 1 0 0 1 0 1 0 0 1 0 0 0 0 0 0 0 0 1 0 0 1 1 0 0 0 0 0 0 0 0 1 0 1 0 0 0 0 1 0 1 1 1 1 1 1 0 1
    1       0    0 1 1 1 1 1 0 1 1 1 0 1 1 0 0 1 1 0 0 1 1 0 0 1 1
   18       2    0 1 0 1 0 0 0 1 1 0 0 0 1 1 0 1 1 0 1 1 1 1 1 0 1 0 1 0 0 0 1 1 0 1 1 0 1 1 1 1 1 1 1 0 0 0 0 1 1 0 0
    1       0    1 0 0 0 0 0 0 1 0 1 0 0 1 0 0 1 0 1 0 0 0 1 0 0 1 1 0 0 0 0 0 0 0 0 1 1 1 0 0 1 0 1 0 1 1 1 1 1 1 0 1
    1       0    0 1 1 1 1 1 0 1 1 0 1 1 1 0 0 1 1 0 0 1 1 0 0 1 1
   19       2    0 1 0 1 0 0 0 1 1 0 0 0 1 1 0 1 1 0 1 0 1 0 1 0 1 0 1 0 0 0 1 1 0 1 1 0 1 1 1 1 1 1 1 0 0 0 0 1 1 0 0
    1       0    1 0 0 0 0 0 0 1 1 1 0 0 1 0 1 1 0 1 0 0 0 1 0 0 1 1 0 0 0 0 0 0 0 0 1 0 1 0 0 0 0 1 0 1 1 1 1 1 1 0 1
    1       0    0 1 1 1 1 1 0 1 1 1 1 1 1 0 0 1 1 1 0 1 1 0 0 1 1
   20       2    0 1 0 1 0 0 0 1 1 0 0 0 1 1 0 1 1 0 1 0 1 0 1 0 1 0 1 0 0 0 1 1 0 1 1 0 1 1 1 1 1 1 1 0 0 0 0 1 1 0 0
    1       0    1 0 0 0 0 0 0 1 1 1 0 0 0 0 1 1 0 1 0 0 0 1 0 0 1 1 0 0 0 0 0 0 0 0 1 0 1 0 0 1 0 1 0 1 1 1 1 1 1 0 1
    1       0    0 1 1 1 1 1 0 1 1 1 1 1 1 0 0 1 1 1 0 1 1 0 0 1 1
   21       2    0 1 0 1 0 0 0 1 1 0 0 0 1 1 0 1 1 0 1 0 1 0 1 0 1 0 1 0 0 0 1 1 0 1 1 0 1 1 1 1 1 1 1 0 0 0 0 1 1 0 0
    1       0    1 0 0 0 0 0 0 1 0 1 1 0 1 0 1 1 0 1 0 0 0 1 0 0 1 1 0 0 0 0 0 0 0 0 1 0 1 0 0 0 0 1 0 1 1 1 1 1 1 0 1
    1       0    0 1 1 1 1 1 0 1 1 1 1 1 0 0 0 0 1 0 0 1 1 0 0 1 1
   22       2    0 1 0 1 0 0 0 1 1 0 0 0 1 1 0 1 1 0 0 1 1 1 1 0 1 0 1 0 0 0 1 1 0 1 0 0 1 1 1 1 1 1 1 0 0 0 0 1 1 0 0
    1       0    1 0 0 0 0 0 0 1 0 1 1 0 1 0 1 1 0 1 0 0 0 1 0 0 1 1 0 0 0 0 0 0 0 0 1 0 1 0 1 0 0 1 0 1 1 1 1 1 1 0 1
    1       0    0 1 1 1 1 1 0 1 1 1 1 1 1 0 0 1 1 0 0 1 1 0 0 1 1
   23       2    0 1 0 1 0 0 0 1 1 0 0 0 1 1 0 1 1 0 0 1 1 0 1 0 1 0 1 0 0 0 1 1 0 1 1 0 1 1 1 1 1 1 1 0 0 0 0 1 1 0 0
    1       0    1 0 0 0 1 0 0 1 0 1 0 0 1 0 1 0 0 0 0 0 0 1 0 1 1 1 0 0 0 0 0 0 0 0 1 0 1 0 0 0 0 1 0 1 1 1 1 1 1 0 1
    1       0    0 1 1 1 1 1 0 1 1 1 0 1 1 0 0 1 1 0 0 1 1 0 0 1 1
   24       2    0 1 0 1 0 0 0 1 1 0 0 0 1 1 0 1 1 0 1 1 1 1 1 0 1 0 1 0 0 0 1 1 0 1 1 0 1 1 1 1 1 1 1 0 0 0 0 1 1 0 0
    1       0    1 0 0 0 1 0 0 1 1 1 0 0 0 0 1 0 0 1 0 0 0 1 0 1 1 1 0 0 0 0 0 1 0 1 1 0 1 0 0 1 0 1 0 1 1 1 1 1 1 0 1
    1       0    0 1 1 1 1 1 0 1 1 1 1 1 1 0 0 1 1 0 0 1 1 0 0 1 1
   25       2    0 1 0 1 0 0 0 1 1 0 0 0 1 1 0 1 1 0 1 1 0 1 1 0 1 0 1 0 0 0 1 1 0 1 1 0 1 1 1 1 1 1 1 0 0 0 0 1 1 0 0
    1       0    1 0 0 0 0 0 0 1 0 1 1 0 1 0 0 0 0 1 0 0 0 0 0 0 1 1 0 0 0 0 0 0 0 0 1 1 1 0 0 0 0 1 0 1 1 1 1 1 1 0 1
    1       0    0 1 1 1 1 1 0 1 1 0 1 1 1 0 0 1 1 0 0 1 1 0 0 1 1
   26       2    0 1 0 1 0 0 0 1 1 0 0 0 1 1 0 1 1 0 1 0 1 0 1 0 1 0 1 0 0 0 1 1 0 1 1 0 0 1 1 1 1 1 1 0 0 0 0 1 1 0 0
    1       0    1 0 0 1 0 0 0 1 0 1 0 0 1 0 0 0 0 1 0 0 0 1 0 0 1 1 0 0 0 0 0 0 0 0 1 0 1 0 0 0 0 1 0 1 1 1 1 1 1 0 0
    1       0    0 1 1 1 1 1 0 1 1 1 1 1 1 0 0 1 1 0 0 1 1 0 0 1 1
   27       2    0 1 0 1 0 0 0 1 1 0 0 0 1 0 0 1 1 0 1 0 1 0 1 0 1 0 1 0 0 0 0 1 0 1 1 0 1 1 1 1 1 1 1 0 0 0 0 1 1 0 0
    1       0    1 0 0 1 0 0 0 1 0 1 0 0 1 0 0 0 0 1 0 0 0 1 0 0 1 1 0 0 0 0 0 1 0 0 1 0 1 0 0 0 0 1 0 1 1 1 1 1 1 0 0
    1       0    0 1 1 1 1 1 0 1 1 0 1 1 1 0 0 1 1 0 0 1 1 0 0 1 1
   28       2    0 1 0 1 0 0 0 1 1 0 0 0 1 1 0 1 1 0 1 0 1 0 1 1 1 0 1 0 0 0 1 1 0 1 1 0 0 1 1 1 1 1 1 0 0 0 0 1 1 0 0
    1       0    1 0 0 1 0 0 0 1 0 1 0 0 1 0 0 0 0 1 0 0 0 1 0 0 1 1 0 0 0 0 0 0 0 0 1 0 1 0 0 0 0 1 0 1 1 1 1 1 1 0 0
    1       0    0 1 1 1 1 1 0 1 1 1 1 1 1 0 0 1 1 0 0 1 1 0 0 1 1
   29       2    0 1 0 1 0 0 0 1 1 0 0 0 1 1 0 1 1 0 1 1 1 0 1 0 1 0 1 0 0 0 0 1 0 1 1 1 1 1 1 1 1 1 1 0 0 0 0 1 1 0 0
    1       0    1 0 0 1 0 0 0 1 0 1 1 0 1 0 0 0 0 1 0 0 0 1 0 0 1 1 0 0 0 0 0 0 0 0 1 0 1 0 0 0 0 1 0 1 1 1 1 1 1 0 0
    1       0    0 1 1 1 1 1 0 1 1 1 1 1 1 0 0 1 1 0 0 1 1 0 0 1 1
   30       2    0 1 0 1 0 0 0 1 1 0 0 0 1 1 0 1 1 0 1 1 1 1 1 0 1 0 1 0 0 0 1 1 0 1 1 0 1 1 1 1 1 1 1 0 0 0 0 1 1 0 0
    1       0    1 0 0 1 0 0 0 0 0 1 0 0 1 0 0 1 0 1 0 0 0 1 0 0 1 1 0 0 0 0 0 0 0 0 1 0 1 0 0 0 0 1 0 1 1 1 1 1 1 0 1
    1       0    0 1 1 1 1 1 0 0 1 1 1 1 1 0 0 1 1 0 0 1 1 0 0 1 1
   31       2    0 1 0 1 0 0 0 1 1 0 0 0 1 1 0 1 1 0 1 1 1 1 1 0 1 0 1 0 0 0 1 1 0 1 1 0 1 1 1 1 1 1 1 0 0 0 0 1 1 0 0
    1       0    1 0 0 1 0 0 0 0 0 1 0 0 1 0 0 1 0 1 0 0 0 1 0 0 1 1 0 0 0 0 0 0 0 0 1 0 1 0 0 0 0 1 0 1 1 1 1 1 1 0 1
    1       0    0 1 1 1 1 1 0 0 1 1 1 1 1 0 0 1 1 0 0 1 1 0 0 1 1
   32       2    0 1 0 1 0 0 0 1 1 0 0 0 1 1 0 1 1 0 1 0 1 0 1 0 1 0 1 0 0 0 1 1 0 1 1 0 1 1 1 1 1 1 1 0 0 0 0 1 1 0 0
    1       0    1 0 0 1 0 0 0 1 0 1 0 0 1 0 1 1 0 1 0 0 0 1 0 0 1 1 0 0 0 0 0 0 1 0 1 0 1 0 0 0 0 1 0 1 1 1 1 1 1 0 1
    1       0    0 1 1 1 1 1 0 0 0 1 1 1 1 0 0 1 1 0 0 1 1 0 0 1 1
   33       2    0 1 0 1 0 0 0 1 1 0 0 0 1 1 0 1 1 0 1 1 1 0 1 0 1 0 1 0 0 0 1 1 0 1 1 0 1 1 1 1 1 1 1 0 0 0 0 1 1 0 0
    1       0    1 0 0 1 0 0 0 0 0 1 0 0 1 0 1 1 0 1 0 0 0 1 0 0 1 1 0 0 0 0 0 0 0 0 1 0 1 0 0 0 0 1 0 1 1 1 1 1 1 0 1
    1       0    0 1 1 1 1 1 0 0 1 1 0 1 1 0 0 1 1 0 0 1 1 0 0 1 1
   34       2    0 1 0 1 0 0 0 1 1 0 0 0 1 1 0 1 1 0 1 0 1 1 1 0 1 0 1 0 0 0 1 1 0 1 1 0 1 1 1 1 1 1 1 0 0 0 0 1 1 0 0
    1       0    1 0 0 1 0 0 0 1 0 1 1 0 1 0 1 1 0 1 0 0 0 1 0 0 1 1 0 0 0 0 0 0 0 0 1 0 1 0 0 0 0 1 0 1 1 1 1 1 1 0 1
    1       0    0 1 1 1 1 1 0 0 0 1 1 1 0 0 0 1 1 0 0 1 1 0 0 1 1
   35       2    0 1 0 1 0 0 0 1 1 0 0 0 1 0 0 1 1 0 1 1 1 1 1 0 1 0 1 0 0 0 1 1 0 1 1 0 1 1 1 1 1 1 1 0 0 0 0 1 1 0 0
    1       0    1 0 0 1 0 0 1 0 0 1 0 0 1 0 0 1 0 1 0 0 0 1 0 0 1 1 0 0 0 0 0 0 0 0 1 0 1 0 0 0 0 1 0 1 1 1 1 1 1 0 1
    1       0    0 1 1 1 1 1 0 0 1 1 1 1 1 0 1 1 1 0 0 1 1 0 0 1 1
   36       2    0 1 0 1 0 0 0 1 1 0 0 0 1 1 0 1 1 0 1 0 1 1 1 0 1 0 1 0 0 0 1 1 0 1 1 0 1 1 1 1 1 1 1 0 0 0 0 1 1 0 0
    1       0    1 0 0 1 0 0 0 1 0 1 1 0 1 0 1 1 0 1 0 0 0 1 0 0 1 1 0 0 0 0 0 0 0 0 1 0 1 0 0 0 0 1 0 1 1 1 1 1 1 0 1
    1       0    0 1 1 1 1 1 0 0 0 1 1 1 0 0 0 1 1 0 0 1 1 0 0 1 1
   37       2    0 1 0 1 0 0 0 1 1 0 0 0 1 1 0 1 1 0 1 0 1 0 1 0 1 0 1 0 0 0 1 1 0 1 1 0 1 1 1 1 1 1 1 0 0 0 0 1 1 0 0
    1       0    1 0 0 1 0 0 0 1 0 1 0 0 1 0 0 0 1 1 0 0 0 1 0 0 1 1 0 0 0 0 0 0 1 0 1 0 1 0 0 0 0 1 0 1 1 1 1 1 1 0 1
    1       0    0 1 1 1 1 1 0 0 1 1 1 1 1 0 0 1 0 0 0 1 1 0 0 1 1
   38       2    0 1 0 1 0 0 0 1 1 0 0 0 1 1 1 1 1 0 1 0 1 1 1 0 1 0 1 0 0 0 1 1 0 1 1 0 1 1 1 1 1 1 1 0 0 0 0 1 1 0 0
    1       0    1 0 0 1 1 0 0 1 0 1 1 0 1 0 0 1 1 1 0 0 0 1 0 0 1 1 0 0 0 0 0 0 0 0 1 0 0 0 0 0 0 1 0 1 1 1 1 1 1 0 1
    1       0    0 1 1 1 1 1 0 0 1 1 0 1 1 0 0 1 1 0 0 1 1 0 0 1 1
   39       2    0 1 0 1 0 0 0 1 1 0 0 0 1 1 0 0 0 0 1 0 1 0 1 0 1 0 1 0 0 0 0 1 0 1 1 0 1 1 1 1 1 1 1 0 0 0 0 1 1 0 0
    1       0    1 0 0 1 0 0 0 1 0 1 1 0 1 0 0 1 0 1 0 0 0 1 0 0 1 1 0 0 0 0 0 0 0 0 1 0 1 0 0 0 0 1 0 1 1 1 1 1 1 0 1
    1       0    0 1 1 1 1 1 0 0 0 1 1 1 1 0 0 1 1 0 0 1 1 0 0 1 1
   40       2    0 1 0 1 0 0 0 1 1 0 0 0 1 1 0 1 1 0 1 0 1 0 1 0 1 0 1 0 0 0 1 1 0 1 1 0 0 1 1 1 1 1 1 0 0 0 0 1 1 0 0
    1       0    1 0 0 1 0 0 0 1 0 1 0 0 1 0 1 1 0 1 0 0 0 1 0 0 1 1 0 0 0 0 0 0 0 0 1 0 1 0 0 0 0 1 0 1 1 1 1 1 1 0 1
    1       0    0 1 1 1 1 1 0 0 0 1 1 1 1 0 0 1 1 0 0 1 1 0 0 1 1
   41       2    0 1 0 1 0 0 0 1 1 0 0 0 1 1 0 1 1 0 1 1 1 1 1 0 1 0 1 1 0 0 1 1 0 1 0 0 1 1 1 1 1 1 1 0 0 0 0 1 1 0 0
    1       0    1 0 0 1 0 0 0 1 0 1 1 0 1 0 1 0 0 1 0 0 0 1 0 0 1 1 0 0 0 0 0 0 0 1 1 0 1 0 0 0 0 1 0 1 1 1 1 1 1 0 1
    1       0    0 1 1 1 1 1 0 0 1 1 1 1 0 0 0 1 1 0 0 1 1 0 0 1 1
   42       2    0 1 0 1 0 0 0 1 1 0 0 0 1 1 0 1 1 0 1 1 1 1 1 0 1 0 1 0 0 0 1 1 0 1 1 0 1 1 1 1 1 1 1 0 0 0 0 1 1 0 0
    1       0    1 0 0 1 0 0 0 0 0 1 0 0 1 0 0 0 0 1 0 0 0 1 0 0 1 1 0 0 0 0 0 0 0 0 1 0 1 0 0 0 0 1 0 1 1 1 1 1 1 0 1
    1       0    0 1 1 1 1 1 0 0 1 1 1 1 1 0 0 1 1 0 0 1 1 0 0 1 1
   43       2    0 1 0 1 0 0 0 1 1 0 0 0 1 1 0 1 1 0 1 0 1 1 1 0 1 0 1 0 0 0 1 1 0 1 1 0 1 1 1 1 1 1 1 0 0 0 0 1 1 0 0
    1       0    1 0 0 1 0 0 0 0 0 1 1 0 1 0 1 1 0 1 0 0 0 1 0 0 1 1 0 0 0 0 0 0 0 0 1 0 1 0 1 0 0 1 0 1 1 1 1 1 1 0 1
    1       0    0 1 1 1 1 1 0 0 1 1 1 1 0 0 0 1 1 0 0 1 1 0 0 1 1
   44       2    0 1 0 1 0 0 0 1 1 0 0 0 1 1 0 1 1 0 1 1 1 0 1 0 1 0 1 0 0 0 1 1 0 1 1 0 1 1 1 1 1 1 1 0 0 0 0 1 1 0 0
    1       0    1 0 0 1 0 0 0 0 0 1 0 0 1 0 1 1 0 1 0 0 0 1 0 0 1 1 0 0 0 0 0 0 0 0 1 0 1 0 0 0 0 1 0 1 1 1 1 1 1 0 1
    1       0    0 1 1 1 1 1 0 0 1 1 1 1 1 0 0 1 1 0 0 1 1 0 0 1 1
   45       2    0 1 0 1 0 0 0 1 1 0 0 0 1 1 0 1 1 0 1 1 1 1 1 0 1 1 1 0 0 0 1 1 0 1 1 0 1 1 1 1 1 1 1 0 0 0 0 1 1 0 0
    1       0    1 0 0 1 0 0 0 0 0 1 1 0 1 0 0 1 0 1 0 0 0 1 0 0 1 1 0 0 0 0 0 0 0 0 1 0 1 0 1 0 0 1 0 1 1 1 1 1 1 0 1
    1       0    0 1 1 1 1 1 0 0 1 1 1 1 0 0 0 1 1 0 0 1 1 0 0 1 1
   46       2    0 1 0 1 0 0 0 1 1 0 0 0 1 1 0 1 1 0 1 0 1 1 1 0 1 0 1 0 0 0 1 1 0 1 1 0 1 1 1 1 1 1 1 0 0 0 0 1 1 0 0
    1       0    1 0 0 1 0 0 0 1 0 1 1 0 1 0 1 1 0 1 0 0 0 1 0 0 1 1 0 0 0 0 0 0 0 0 1 0 1 0 0 0 0 1 0 1 1 1 1 1 1 0 1
    1       0    0 1 1 1 1 1 0 0 0 0 1 1 1 1 0 1 1 0 0 1 1 0 0 1 1
   47       2    0 1 0 1 0 0 0 1 1 0 0 0 1 1 0 0 0 0 1 0 1 0 1 0 1 0 1 0 0 0 1 1 0 1 1 0 1 1 1 1 1 1 1 0 0 0 0 1 1 0 0
    1       0    1 0 0 1 0 0 0 0 0 1 1 0 1 0 1 1 0 1 0 0 0 1 0 0 1 1 0 0 0 0 0 0 0 0 1 0 1 0 1 0 0 1 0 1 1 1 1 1 1 0 1
    1       0    0 1 1 1 1 1 0 0 1 1 1 1 0 0 0 1 1 0 0 1 1 0 0 1 1
   48       2    0 1 0 1 0 0 0 1 1 0 0 0 1 1 0 1 1 0 1 0 1 0 1 0 1 0 1 0 0 0 1 1 0 1 1 0 1 1 1 1 1 1 1 0 0 0 0 1 1 0 0
    1       0    1 0 0 1 0 0 0 1 0 1 1 0 1 0 0 0 1 1 0 0 0 1 0 0 1 1 0 0 0 0 0 0 1 0 1 0 1 0 0 0 0 1 0 1 1 1 1 1 1 0 1
    1       0    0 1 1 1 1 1 0 0 1 1 1 1 0 0 0 1 1 0 0 1 1 0 0 1 1
   49       2    0 1 0 1 0 0 0 1 1 0 0 0 1 1 0 1 1 0 1 0 1 1 1 0 1 0 1 0 0 0 1 1 0 1 1 0 1 1 1 1 1 1 1 0 0 0 0 1 1 0 0
    1       0    1 0 0 1 0 0 0 0 0 1 0 0 1 0 1 0 0 1 0 0 0 1 0 0 1 1 0 0 0 0 0 0 0 0 1 0 1 0 1 0 0 1 0 1 1 1 1 1 1 0 1
    1       0    0 1 1 1 1 1 0 0 0 1 1 1 0 0 0 1 1 0 0 1 1 0 0 1 1
   50       2    0 1 0 1 0 0 0 1 1 0 0 0 1 1 0 1 1 0 1 0 1 0 1 0 1 0 1 0 0 0 1 1 0 1 1 0 1 1 1 1 1 1 1 0 0 0 0 1 1 0 0
    1       0    1 0 0 1 0 0 0 1 0 1 1 0 1 0 1 1 0 1 0 0 0 0 0 0 1 1 0 0 0 0 0 0 1 0 1 0 1 0 0 0 0 1 0 1 1 1 1 1 1 0 1
    1       0    0 1 1 1 1 1 0 0 1 1 1 1 1 0 0 1 1 0 0 1 1 0 0 1 1
   51       2    0 1 0 1 0 0 0 1 1 0 0 0 1 1 0 1 1 0 1 1 1 1 1 0 1 0 1 0 0 0 1 1 0 1 0 0 1 1 1 1 1 1 1 0 0 0 0 1 1 0 0
    1       0    1 0 0 1 0 0 0 0 0 1 0 0 1 0 1 1 0 1 0 0 0 1 0 0 1 1 0 0 0 0 0 0 0 0 1 0 1 0 1 0 0 1 0 1 1 1 1 1 1 0 1
    1       0    0 1 1 1 1 1 0 0 1 1 1 1 0 0 0 1 1 0 0 1 1 0 0 1 1
   52       2    0 1 0 1 0 0 0 1 1 0 0 0 1 1 0 1 1 0 1 0 1 0 1 0 1 0 1 0 0 0 1 1 0 1 1 0 1 1 1 1 1 1 1 0 0 0 0 1 1 0 0
    1       0    1 0 0 1 0 0 0 0 0 1 1 0 1 0 1 1 0 1 0 0 0 1 0 0 1 1 0 0 0 0 0 0 0 0 1 0 1 0 1 0 0 1 0 1 1 1 1 1 1 0 1
    1       0    0 1 1 1 1 1 0 0 1 1 1 1 0 0 0 1 1 0 0 1 1 0 0 1 1
   53       2    0 1 0 1 0 0 0 1 1 0 0 0 1 1 0 1 1 0 1 0 1 0 1 0 1 0 1 0 0 0 1 1 0 1 1 0 1 1 1 1 1 1 1 0 0 0 0 1 1 0 0
    1       0    1 0 0 1 1 0 0 1 0 1 1 0 1 0 1 1 1 1 0 0 0 1 0 0 1 1 0 0 0 0 0 0 0 0 1 0 0 0 0 0 0 1 0 1 1 1 1 1 1 0 1
    1       0    0 1 1 1 1 1 0 0 0 1 1 1 1 0 0 1 1 0 0 1 1 0 0 1 1
   54       2    0 1 0 1 0 0 0 1 1 0 0 0 1 1 0 1 1 0 1 1 1 1 1 0 1 0 1 0 0 0 1 1 1 1 1 0 1 1 1 1 1 1 1 0 0 0 0 1 1 0 0
    1       0    1 0 0 1 0 0 0 0 0 1 1 0 1 0 1 1 0 1 0 0 0 1 0 0 1 1 0 0 0 0 0 0 0 0 1 0 1 0 1 0 0 1 0 1 1 1 1 1 1 0 1
    1       0    0 1 1 1 1 1 0 0 1 1 1 1 0 0 0 1 1 0 0 1 1 0 0 1 1
   8800000.00000000        1618033.00000000       0.000000000000000E+000
  1.136363636363636E-007   7871717.00000000        6524285.00000000     
           1          34          10
   3932612.00000000        8187109.00000000        5287359.00000000     
   2651705.00000000        8359066.00000000        637166.000000000     
   3750779.00000000        4443557.00000000        8691571.00000000     
   1937741.00000000        726554.000000000        6511828.00000000     
   3979819.00000000        3022083.00000000        305984.000000000     
   1992658.00000000        3566134.00000000        3985622.00000000     
   2518608.00000000        1977788.00000000        4179439.00000000     
   1290951.00000000        7861857.00000000        7474718.00000000     
   6410288.00000000        6869906.00000000        327767.000000000     
   686610.000000000        4995802.00000000        6943056.00000000     
   3559297.00000000        7863807.00000000        5123801.00000000     
   7871717.00000000        3725207.00000000        8221205.00000000     
   6870807.00000000        5993049.00000000        6157242.00000000     
   6788700.00000000        3435908.00000000        2135725.00000000     
   7246254.00000000        560878.000000000        3907224.00000000     
   4823385.00000000        1322895.00000000        2938950.00000000     
   5323235.00000000        150808.000000000        8365049.00000000     
   4360211.00000000        7925894.00000000        8466569.00000000     
   159603.000000000     
   8800000.00000000        1618033.00000000       0.000000000000000E+000
  1.136363636363636E-007   7583010.00000000        1667309.00000000     
           1          40          16
   5879949.00000000        2458575.00000000        8395394.00000000     
   6814400.00000000        2643573.00000000        2873850.00000000     
   7345391.00000000        1374849.00000000        7267266.00000000     
   6341720.00000000        1778980.00000000        3388926.00000000     
   514123.000000000        901687.000000000        5103178.00000000     
   3677588.00000000        5991226.00000000        6259382.00000000     
   1488516.00000000        843799.000000000        8695055.00000000     
   6216440.00000000        6724033.00000000        2253242.00000000     
   701927.000000000        2979314.00000000        4319793.00000000     
   3557728.00000000        2206621.00000000        6591342.00000000     
   590039.000000000        6919716.00000000        5517376.00000000     
   7477491.00000000        5526511.00000000        5309123.00000000     
   2564829.00000000        3600596.00000000        1538482.00000000     
   7583010.00000000        4556519.00000000        4980175.00000000     
   2376138.00000000        7470703.00000000        5581455.00000000     
   5338633.00000000        991512.000000000        2362921.00000000     
   1615452.00000000        8652797.00000000        3462924.00000000     
   8060650.00000000        5297329.00000000        2922049.00000000     
   497773.000000000     
   8800000.00000000        1618033.00000000       0.000000000000000E+000
  1.136363636363636E-007   6847278.00000000        2512077.00000000     
           1          40          16
   5772141.00000000        6161723.00000000        8271002.00000000     
   4275404.00000000        2295581.00000000        7534990.00000000     
   353443.000000000        2453813.00000000        2140494.00000000     
   1937340.00000000        8237644.00000000        891414.000000000     
   5410351.00000000        3313655.00000000        1929694.00000000     
   1086092.00000000        4846158.00000000        5901506.00000000     
   561468.000000000        8030895.00000000        7993495.00000000     
   8408824.00000000        8336161.00000000        779466.000000000     
   8401755.00000000        428606.000000000        2160185.00000000     
   1380516.00000000        3934637.00000000        2577022.00000000     
   69051.0000000000        2490260.00000000        2584928.00000000     
   8495123.00000000        1271279.00000000        974303.000000000     
   2430297.00000000        424736.000000000        2427418.00000000     
   6847278.00000000        7724447.00000000        6903007.00000000     
   2295766.00000000        3474223.00000000        6559223.00000000     
   1859709.00000000        3172136.00000000        5589545.00000000     
   45844.0000000000        7707305.00000000        7570660.00000000     
   3576602.00000000        2457589.00000000        5103645.00000000     
   392329.000000000     
