          72          54
    1    0 1 0 0 1 1 0 1 0 1 0 1 1 0 1 1 0 1 1 1 1 0 0 0 1 0 1 0 0 0 0 0 0 1 0 1 0 1 1 0 0 0 0 0 0 0 1 1 0 1 0
    1    1 1 0 1 1 0 1 0 0 1 0 1 1 1 0 1 0 1 1 0 1 1 0 0 0 1 1 0 0 1 0 0 0 1 0 1 0 0 1 0 1 0 1 0 1 0 0 1 0 1 0
    1    1 1 1 0 0 1 0 1 1 1 0 0 1 1 0 1 0 1 0 1 0 1 1 0 0 1 0
    2    0 1 0 0 1 1 0 1 0 1 0 1 1 0 1 1 0 1 1 1 0 1 0 0 1 0 1 0 0 0 0 0 0 0 0 0 1 1 1 0 0 0 0 0 0 0 1 1 0 1 0
    1    1 1 0 1 1 0 0 1 0 0 0 1 1 1 0 1 0 0 1 0 1 1 1 0 1 1 1 0 0 1 0 0 0 1 0 1 1 0 1 0 1 0 1 0 1 0 0 1 0 1 1
    0    1 1 1 0 0 1 0 1 1 0 1 0 1 1 0 1 0 1 0 1 0 1 1 0 0 1 0
    3    0 1 0 0 1 1 0 1 0 1 0 1 1 0 0 1 0 1 1 1 1 1 0 0 1 0 1 0 0 0 0 0 0 0 0 0 1 1 1 0 0 0 0 0 0 0 1 1 0 1 0
    1    1 1 0 1 1 0 0 1 0 1 0 0 1 1 0 1 0 0 1 0 1 1 1 0 0 1 1 0 0 1 0 0 1 1 0 1 1 0 1 0 1 0 1 0 1 0 0 1 0 1 1
    0    1 1 1 0 0 1 0 1 1 0 1 0 1 1 0 1 0 1 1 1 0 1 1 0 0 1 0
    4    0 1 0 0 1 1 0 1 0 1 0 1 1 0 1 0 0 1 1 1 0 1 0 0 1 0 1 0 0 0 0 0 0 0 0 0 1 1 1 0 0 0 0 0 0 0 1 1 0 1 0
    1    1 1 0 1 1 0 0 1 0 1 0 1 1 0 0 1 0 0 1 0 1 1 1 0 1 1 1 0 0 1 0 0 0 0 0 1 1 0 1 0 1 0 1 0 1 0 0 1 0 1 1
    0    1 1 1 0 0 1 0 1 1 0 0 1 1 1 1 1 0 1 0 1 0 1 1 0 0 1 0
    5    0 1 0 0 1 1 0 1 0 1 0 1 1 0 0 1 0 1 1 1 1 1 0 0 1 0 1 0 0 0 0 0 0 0 0 0 0 1 1 0 0 0 0 0 0 0 1 1 0 1 0
    1    1 1 0 1 1 0 0 1 0 1 0 1 1 1 0 1 0 0 1 0 1 1 0 0 0 1 1 0 0 1 0 0 1 1 0 1 1 0 1 0 1 0 1 0 1 0 0 1 0 1 1
    0    1 1 1 0 0 1 0 1 1 0 1 0 1 1 0 1 0 1 0 1 0 1 1 0 0 1 0
    6    0 1 0 0 1 1 0 1 0 1 0 1 1 0 0 1 0 1 1 1 1 1 0 0 1 0 1 0 0 0 0 0 0 0 0 0 1 1 1 0 0 0 0 0 0 0 1 1 0 1 0
    1    1 1 0 1 1 0 1 1 0 1 0 0 1 1 0 1 0 1 1 0 1 1 1 1 0 1 1 0 0 1 0 0 1 1 0 1 1 0 1 0 1 0 1 0 1 0 0 1 0 1 1
    0    1 1 1 0 0 1 0 1 1 0 0 0 1 1 1 1 0 1 1 1 0 1 1 0 0 1 0
    7    0 1 0 0 1 1 0 1 0 1 0 1 1 0 1 0 0 1 1 1 0 1 0 0 1 0 1 0 0 0 1 0 0 0 0 0 0 1 1 0 0 0 0 0 0 0 1 1 0 1 0
    1    1 1 0 1 1 0 0 1 0 1 0 1 1 0 0 1 0 0 1 0 1 1 1 0 1 1 1 0 0 1 0 0 0 1 0 1 1 0 1 0 1 0 1 0 1 0 0 1 0 1 1
    0    1 1 1 0 0 1 0 1 1 0 0 0 1 1 1 0 1 0 0 1 0 1 1 0 0 1 0
    8    0 1 0 0 1 1 0 1 0 1 0 1 1 0 0 1 0 1 1 1 1 1 0 0 1 0 1 1 0 0 1 0 0 0 0 0 0 1 1 0 0 0 0 0 0 0 1 1 0 1 0
    1    1 1 0 1 1 0 0 1 0 0 0 1 1 1 0 1 0 1 1 0 0 1 0 0 0 1 1 0 0 1 0 0 0 1 0 1 1 1 0 0 1 0 1 0 1 0 0 1 0 1 1
    1    1 1 1 0 0 1 0 1 0 1 1 0 1 1 1 1 0 1 0 1 0 1 1 0 0 1 0
    9    0 1 0 0 1 1 0 1 0 1 0 0 1 0 0 0 0 1 0 1 0 0 0 0 1 0 1 0 1 0 0 0 0 1 0 0 0 1 1 0 0 0 0 0 0 0 1 1 0 1 0
    1    1 1 1 0 0 1 0 0 0 1 1 0 1 1 0 0 0 0 1 0 1 1 1 0 0 1 1 0 0 1 0 0 0 1 0 1 1 0 1 0 1 0 1 0 1 0 0 1 0 1 1
    1    1 1 1 0 0 1 0 1 0 0 0 0 1 1 0 0 0 1 0 1 0 1 1 0 0 1 0
   10    0 1 0 0 1 1 0 1 0 1 0 1 1 0 1 0 0 1 0 1 0 0 0 0 1 0 1 0 0 0 0 0 0 0 0 0 0 1 1 0 0 0 0 0 0 0 1 1 0 1 0
    1    1 1 1 1 0 0 0 1 0 1 0 0 1 1 0 0 0 0 1 1 1 1 1 0 0 1 1 0 0 1 0 0 0 1 0 1 1 0 1 0 1 1 1 0 1 0 0 1 0 0 1
    1    1 1 1 0 0 1 0 1 1 0 0 0 1 1 0 0 0 1 0 1 0 1 1 0 0 1 0
   11    0 1 0 0 1 1 0 1 0 1 0 1 0 0 0 1 0 1 1 1 1 1 0 0 1 0 1 0 0 0 0 0 1 0 0 0 0 1 1 0 0 0 0 0 0 0 1 1 0 1 0
    1    1 1 1 1 0 0 0 1 0 1 0 1 0 0 0 1 0 1 1 0 1 1 1 0 0 1 1 0 0 1 0 0 1 1 0 1 1 0 1 0 1 0 1 0 1 0 0 1 0 1 1
    1    1 1 1 0 0 1 0 0 1 0 0 0 1 1 1 1 0 1 0 1 0 1 1 0 0 1 0
   12    0 1 0 0 1 1 0 1 0 1 0 1 1 0 0 0 0 1 1 1 0 1 0 0 1 0 1 0 0 0 0 1 0 1 0 0 0 1 1 0 0 0 0 0 0 0 1 1 0 1 0
    1    1 1 0 1 0 1 1 1 0 1 0 0 1 1 0 1 0 0 1 0 1 1 1 0 1 1 1 0 0 1 0 0 0 1 0 1 1 0 1 0 1 0 1 0 1 0 0 1 0 1 1
    1    1 1 1 0 0 1 0 1 1 1 0 0 1 1 1 1 0 1 0 1 0 1 1 0 0 1 0
   13    0 1 0 0 1 1 0 1 0 1 0 1 1 0 0 0 1 1 1 0 0 1 0 0 1 0 1 0 0 0 0 1 0 1 0 0 0 1 1 0 0 0 0 0 0 0 1 1 0 1 0
    1    1 1 0 1 0 1 1 1 0 1 0 0 0 0 0 1 0 0 1 0 1 1 0 0 1 1 1 0 0 1 0 0 0 1 0 1 1 0 1 0 1 0 1 0 1 0 0 1 0 1 1
    1    1 1 1 0 0 1 0 1 1 1 0 0 1 1 1 1 0 1 0 1 0 1 1 0 0 1 0
   14    0 1 0 0 1 1 0 1 0 1 0 1 1 0 0 0 0 1 1 1 0 1 0 0 1 0 1 0 0 0 0 1 0 1 0 0 0 1 1 0 0 0 0 0 0 0 1 1 0 1 0
    1    1 1 0 1 0 0 1 0 0 1 0 0 1 0 0 0 0 0 1 0 1 1 1 0 1 1 1 0 0 1 0 0 0 1 0 1 1 0 1 0 1 0 1 0 1 0 0 1 0 1 1
    1    1 1 1 0 0 1 0 1 1 1 0 0 1 1 1 1 0 1 0 1 0 1 1 0 0 1 0
   15    0 1 0 0 1 1 0 1 0 1 0 1 1 0 0 1 0 1 1 0 0 1 0 0 1 0 1 0 0 0 0 0 0 1 0 0 0 1 1 0 0 0 0 0 0 0 1 1 0 1 0
    1    1 1 0 1 0 1 1 1 0 1 0 0 1 1 0 1 0 1 1 1 1 1 0 0 0 1 1 0 0 1 0 0 0 1 0 1 1 0 1 0 1 0 1 0 1 0 0 1 0 1 1
    1    1 1 1 0 0 1 0 1 1 1 1 0 1 1 0 1 0 1 1 1 0 1 1 0 0 1 0
   16    0 1 0 0 1 1 0 1 0 1 0 1 1 0 0 1 0 1 0 1 0 1 0 0 1 0 1 0 0 0 0 0 0 0 0 0 0 1 1 0 0 0 0 0 0 0 1 1 0 1 0
    1    1 1 0 1 0 0 0 1 0 1 0 0 1 0 0 1 0 1 1 0 0 1 0 0 0 1 1 0 0 1 0 0 0 1 0 1 1 0 1 0 1 0 1 0 1 0 0 1 0 1 1
    1    1 1 1 0 0 1 0 1 1 1 1 0 1 1 0 1 0 1 1 1 0 1 1 0 0 1 0
   17    0 1 0 0 1 1 0 1 0 1 0 1 1 0 0 1 1 1 0 1 0 1 0 0 1 0 1 0 0 0 0 1 0 1 0 0 0 1 1 0 0 0 0 0 0 0 1 1 0 1 0
    1    1 1 0 1 0 0 0 1 0 1 0 0 1 0 0 1 0 1 1 0 1 1 0 0 1 1 1 0 0 1 0 0 0 1 0 1 1 0 1 0 1 0 1 0 1 0 0 1 0 1 1
    1    1 1 1 0 0 1 0 1 1 1 0 0 1 1 0 1 0 1 1 1 0 1 1 0 0 1 0
   18    0 1 0 0 1 1 0 1 0 1 0 1 1 0 0 0 0 1 1 0 0 1 0 0 1 0 1 0 0 0 0 0 0 0 0 0 0 1 1 0 0 0 0 0 0 0 1 1 0 1 0
    1    1 1 0 1 0 1 1 1 0 1 0 0 0 0 0 1 0 0 1 0 0 1 0 0 0 1 1 0 0 1 0 0 0 1 0 1 1 0 0 0 1 0 1 0 1 0 0 1 0 1 1
    1    1 1 1 0 0 1 0 1 1 1 1 0 1 1 1 1 0 1 0 1 0 1 1 0 0 1 0
   19    0 1 0 0 1 1 0 1 0 1 0 1 1 0 1 1 0 1 1 1 0 0 0 0 1 0 1 0 0 0 0 0 0 0 0 0 0 1 1 0 0 0 0 0 0 0 1 1 0 1 0
    1    1 1 0 1 0 0 0 0 0 1 0 0 1 0 0 1 0 1 1 0 0 1 0 0 0 1 1 0 0 1 0 0 0 1 0 0 1 0 0 0 1 0 1 0 1 0 0 1 0 1 1
    1    1 1 1 0 0 1 0 1 1 1 0 0 1 1 0 0 1 1 0 1 0 1 1 0 0 1 0
   20    0 1 0 0 1 1 0 1 0 1 0 1 1 0 0 1 0 1 0 1 1 1 0 0 1 0 1 0 0 0 0 0 0 0 0 0 0 1 1 0 0 0 0 0 0 0 1 1 0 1 0
    1    1 1 0 1 0 0 0 1 0 1 0 0 1 0 0 1 0 1 1 0 0 1 0 0 0 1 1 0 0 1 0 0 0 1 0 1 1 0 1 0 1 0 1 0 1 0 0 1 0 1 1
    1    1 1 1 0 0 1 0 1 1 1 0 0 1 1 0 1 0 1 1 1 0 1 1 0 0 1 0
   21    0 1 0 0 1 1 0 1 0 1 0 1 1 0 0 1 0 1 1 1 1 1 0 0 1 0 1 0 0 0 0 0 0 0 0 0 0 1 1 0 0 0 0 0 0 0 1 1 0 1 0
    1    1 1 0 1 0 1 1 1 0 1 0 0 1 0 0 1 0 1 1 0 1 1 0 0 0 1 1 0 0 1 0 0 0 1 0 1 1 0 1 0 1 0 1 0 1 0 0 1 0 1 1
    1    1 1 1 0 0 1 0 1 1 1 1 0 1 1 0 1 0 1 1 1 0 1 1 0 0 1 0
   22    0 1 0 0 1 1 0 1 0 1 0 1 1 0 0 1 0 1 1 1 0 1 0 0 1 0 1 0 0 0 0 0 0 1 0 0 0 1 1 0 0 0 0 0 0 0 1 1 0 1 0
    1    1 1 0 1 0 1 1 1 0 1 0 1 1 1 0 1 0 1 1 1 0 1 0 0 0 1 1 0 0 1 0 0 0 1 0 1 1 0 1 0 1 0 1 0 1 0 0 1 0 1 1
    1    1 1 1 0 0 1 0 1 1 1 1 0 1 1 0 1 0 1 0 1 0 1 1 0 0 1 0
   23    0 1 0 0 1 1 0 1 0 1 0 1 1 0 0 1 0 1 1 1 0 1 0 0 1 0 1 0 0 0 0 1 0 1 0 0 1 1 1 0 0 0 0 0 0 0 1 1 0 1 0
    1    1 1 0 1 0 1 1 1 0 1 0 0 1 1 0 1 0 1 1 1 0 1 1 0 0 1 1 0 0 1 0 0 0 1 0 1 1 0 1 0 1 0 1 0 1 0 0 1 0 1 1
    1    1 1 1 0 0 1 0 1 1 1 1 0 1 1 0 0 0 1 1 1 0 1 1 0 0 1 0
   24    0 1 0 0 1 1 0 1 0 1 0 1 1 0 0 0 1 1 1 0 0 1 0 0 1 0 1 0 0 0 0 0 0 0 0 0 0 1 1 0 0 0 0 0 0 0 1 1 0 1 0
    1    1 1 0 1 0 1 1 1 1 1 0 0 0 0 0 0 0 0 1 0 1 1 0 1 1 1 1 0 0 1 0 0 0 1 0 1 0 0 0 0 1 0 1 0 1 0 0 1 0 1 1
    1    1 1 1 0 0 1 0 1 1 1 1 0 1 1 1 1 0 1 0 1 0 1 1 0 0 1 0
   25    0 1 0 0 1 1 0 1 0 1 0 1 1 0 0 0 0 1 1 1 0 1 0 0 1 0 1 0 0 0 0 1 0 0 0 0 0 1 1 0 0 0 0 0 0 0 1 1 0 1 0
    1    1 1 0 1 0 0 0 1 0 1 0 0 1 0 0 1 0 0 1 0 1 1 1 0 1 1 1 0 0 1 0 0 0 1 0 1 1 0 1 0 1 0 1 0 1 0 0 1 0 1 1
    1    1 1 1 0 0 1 0 1 1 1 0 0 1 1 0 1 0 1 0 1 0 1 1 0 0 1 0
   26    0 1 0 0 1 1 0 1 0 1 0 1 1 0 0 1 0 1 1 1 0 1 0 0 1 0 1 1 0 0 0 0 0 0 0 0 1 1 1 0 0 0 0 0 0 0 1 1 0 1 0
    1    1 1 0 1 0 1 1 1 0 0 0 1 1 1 0 1 0 1 1 1 1 1 1 0 1 1 1 0 0 1 0 0 0 1 0 1 1 0 1 0 1 0 1 0 1 0 0 1 0 1 1
    1    1 1 1 0 0 1 0 1 1 1 1 0 1 1 0 1 0 1 0 1 0 1 1 0 0 1 0
   27    0 1 0 0 1 1 0 1 0 1 0 1 1 0 1 0 0 1 1 0 0 0 0 0 1 0 1 0 0 0 0 1 0 0 0 0 0 1 1 0 0 0 0 0 0 0 1 1 0 1 0
    1    1 1 0 1 0 0 1 0 0 1 0 0 0 0 0 1 0 1 1 1 0 1 1 0 1 1 1 0 0 1 0 0 0 1 0 1 0 0 0 0 1 0 1 0 1 0 0 1 0 1 1
    1    1 1 1 0 0 1 0 1 1 1 1 0 1 1 1 1 0 1 0 1 0 1 1 0 0 1 0
   28    0 1 0 0 1 1 0 1 0 1 0 1 1 0 0 1 0 1 0 1 0 1 0 0 1 0 1 0 0 0 0 0 0 0 0 0 1 1 1 0 0 0 0 0 0 0 1 1 0 1 0
    1    1 1 0 1 0 1 1 1 0 0 0 0 1 1 0 1 0 1 1 1 1 1 1 0 1 1 1 0 0 1 0 0 0 1 0 1 1 0 1 0 1 0 1 0 1 0 0 1 0 1 1
    1    1 1 1 0 0 1 0 1 1 1 1 0 1 1 0 1 0 1 1 1 0 1 1 0 0 1 0
   29    0 1 0 0 1 1 0 1 0 1 0 1 1 0 1 1 0 1 1 1 0 1 0 0 1 0 1 0 0 0 0 0 0 1 0 0 0 1 1 0 0 0 0 0 0 0 1 1 0 1 0
    1    1 1 0 1 0 0 0 1 0 1 0 0 1 0 0 1 0 1 1 0 1 1 0 0 0 1 1 0 0 1 0 0 0 1 0 1 1 0 1 0 1 0 1 0 1 0 0 1 0 1 1
    1    1 1 1 0 0 1 0 1 1 1 0 0 1 1 1 0 1 1 0 1 0 1 1 0 0 1 0
   30    0 1 0 0 1 1 0 1 0 1 0 1 1 0 0 1 1 1 0 1 0 1 0 0 1 0 1 0 0 0 0 1 0 1 0 0 0 1 1 0 0 0 0 0 0 0 1 1 0 1 0
    1    1 1 0 1 0 0 0 1 1 1 0 0 1 0 0 1 0 1 1 0 1 1 0 0 1 1 1 0 0 1 0 0 0 1 0 1 1 0 1 0 1 0 1 0 1 0 0 1 0 1 1
    1    1 1 1 0 0 1 0 1 1 1 0 0 1 0 0 1 0 1 1 1 0 1 1 0 0 1 0
   31    0 1 0 0 1 1 0 1 0 1 0 1 1 0 1 1 0 1 0 0 0 1 0 0 1 0 1 0 0 1 0 0 0 1 0 0 1 1 1 0 0 0 0 0 0 0 1 1 0 1 0
    1    1 1 0 1 0 0 0 0 0 1 0 0 1 0 0 1 0 1 0 0 1 1 0 0 0 1 1 0 0 1 0 0 0 1 0 1 1 0 1 0 1 0 1 0 1 0 0 1 0 1 1
    1    1 1 1 0 0 1 0 1 1 1 0 0 1 1 1 0 0 1 0 1 0 1 1 0 0 1 0
   32    0 1 0 0 1 1 0 1 0 1 0 1 1 0 0 0 0 1 1 1 1 1 0 0 1 0 1 0 0 0 0 1 0 0 0 0 0 1 1 0 0 0 0 0 0 0 1 1 0 1 0
    1    1 1 0 1 0 0 0 1 0 1 0 0 1 0 0 1 0 0 1 0 0 1 1 1 1 1 1 0 0 1 0 0 0 1 0 1 1 0 1 0 1 0 1 0 1 0 0 1 0 1 1
    1    1 1 1 0 0 1 0 1 1 1 0 0 1 1 0 1 0 1 1 1 0 1 1 0 0 1 0
   33    0 1 0 0 1 1 0 1 0 1 0 1 1 0 0 1 0 1 1 1 0 1 0 0 1 0 1 1 0 0 0 1 0 0 0 0 0 1 1 0 0 0 0 0 0 0 1 1 0 1 0
    1    1 1 0 1 0 1 1 1 0 0 0 1 1 1 0 1 0 1 1 0 1 1 1 0 1 1 1 0 0 1 0 0 0 1 0 1 1 0 1 0 1 0 1 0 1 0 0 1 0 1 1
    1    1 1 1 0 0 1 0 1 1 1 1 0 1 1 0 1 0 1 0 1 0 1 1 0 0 1 0
   34    0 1 0 0 1 1 0 1 0 1 0 1 1 0 1 1 0 1 0 0 0 0 0 0 1 0 1 0 0 0 0 0 0 0 0 0 0 1 1 0 0 0 0 0 0 0 1 1 0 1 0
    1    1 1 0 1 0 1 1 1 1 1 0 0 1 0 0 1 0 0 1 0 1 1 0 0 1 1 1 0 0 1 0 0 0 1 0 1 1 0 0 0 1 0 1 0 1 0 0 1 0 1 1
    1    1 1 1 0 0 1 0 1 1 1 1 0 1 1 1 0 0 1 0 1 0 1 1 0 0 1 0
   35    0 1 0 0 1 1 0 1 0 1 0 1 1 0 1 1 1 1 1 1 0 1 0 0 1 0 1 0 0 0 0 0 0 1 0 0 0 1 1 0 0 0 0 0 0 0 1 1 0 1 0
    1    1 1 0 1 0 0 1 1 0 1 0 1 1 1 0 1 1 1 1 0 1 1 0 0 1 1 1 0 0 1 0 0 0 1 0 0 1 0 0 0 1 0 1 0 1 0 0 1 0 1 1
    1    1 1 1 0 0 1 0 1 1 1 0 0 1 0 0 0 1 1 0 1 0 1 1 0 0 1 0
   36    0 1 0 0 1 1 0 1 0 1 0 1 1 0 0 1 1 1 1 0 0 1 0 0 1 0 1 0 0 0 0 1 0 1 0 0 0 1 1 0 0 0 0 0 0 0 1 1 0 1 0
    1    1 1 0 1 0 1 1 1 0 1 0 0 1 1 0 1 0 0 1 0 1 1 0 0 0 1 1 0 0 1 0 0 0 1 0 1 1 0 1 0 1 0 1 0 1 0 0 1 0 1 1
    1    1 1 1 0 0 1 0 1 1 1 0 0 1 1 0 1 0 1 0 1 0 1 1 0 0 1 0
   37    0 1 0 0 1 1 0 1 0 1 0 1 1 0 0 0 0 1 1 0 0 1 0 0 1 0 1 0 0 0 0 0 0 1 0 0 0 1 1 0 0 0 0 0 0 0 1 1 0 1 0
    1    1 1 0 1 0 0 1 1 0 1 0 0 0 1 0 1 0 0 1 1 0 1 0 0 1 1 1 0 0 1 0 0 0 1 0 1 1 0 1 0 1 0 1 0 1 0 0 1 0 1 1
    1    1 1 1 0 0 1 0 1 1 1 1 0 1 1 1 1 0 1 1 1 0 1 1 0 0 1 0
   38    0 1 0 0 1 1 0 1 0 1 0 1 1 0 0 0 0 1 1 0 0 1 0 0 1 0 1 0 1 0 0 1 0 1 0 0 1 1 1 0 0 0 0 0 0 0 1 1 0 1 0
    1    1 1 0 1 0 1 1 1 0 1 0 0 1 0 0 1 0 0 1 1 0 1 0 0 0 1 1 0 0 1 0 0 0 1 0 1 1 0 1 0 1 0 1 0 1 0 0 1 0 1 1
    1    1 1 1 0 0 1 0 1 1 1 1 0 1 1 0 1 0 1 1 1 0 1 1 0 0 1 0
   39    0 1 0 0 1 1 0 1 0 1 0 1 1 0 0 1 0 1 0 1 0 1 0 0 1 0 1 1 0 0 0 0 0 0 0 0 1 1 1 0 0 0 0 0 0 0 1 1 0 1 0
    1    1 1 0 1 0 1 0 1 0 0 0 1 1 1 0 1 0 1 1 0 1 1 1 0 1 1 1 0 0 1 0 0 0 1 0 0 1 0 1 0 1 0 1 0 1 0 0 1 0 1 1
    1    1 1 1 0 0 1 0 1 1 1 0 0 1 0 0 1 0 1 0 1 0 1 1 0 0 1 0
   40    0 1 0 0 1 1 0 1 0 1 0 1 1 0 0 0 0 1 1 0 0 1 0 0 1 0 1 0 0 0 0 0 0 0 0 0 0 1 1 0 0 0 0 0 0 0 1 1 0 1 0
    1    1 1 0 1 0 1 1 1 0 1 0 0 1 1 0 1 0 0 1 0 0 1 1 0 0 1 1 0 0 1 0 0 1 1 0 1 1 0 1 0 1 0 1 0 1 0 0 1 0 1 1
    1    1 1 1 0 0 1 0 1 1 1 1 0 1 1 0 1 0 1 0 1 0 1 1 0 0 1 0
   41    0 1 0 0 1 1 0 1 0 1 0 1 1 0 1 1 0 1 1 0 0 1 0 0 1 0 1 0 0 1 0 0 0 1 0 0 1 1 1 0 0 0 0 0 0 0 1 1 0 1 0
    1    1 1 0 1 0 0 0 1 0 1 0 0 0 0 0 1 0 1 0 0 1 1 1 0 0 1 1 0 0 1 0 0 0 1 0 1 1 0 1 0 1 0 1 0 1 0 0 1 0 1 1
    1    1 1 1 0 0 1 0 1 1 1 0 1 1 1 1 0 0 1 0 1 0 1 1 0 0 1 0
   42    0 1 0 0 1 1 0 1 0 1 0 1 1 0 0 0 1 1 1 0 0 1 0 0 1 0 1 0 0 0 0 0 0 1 0 0 0 1 1 0 0 0 0 0 0 0 1 1 0 1 0
    1    1 1 0 1 0 0 1 1 0 1 0 1 1 1 0 1 0 1 1 0 1 1 0 0 1 1 1 0 0 1 0 0 0 1 0 1 1 0 0 0 1 0 1 0 1 0 0 1 0 1 1
    1    1 1 1 0 0 1 0 1 1 1 0 0 1 0 0 1 1 1 0 1 0 1 1 0 0 1 0
   43    0 1 0 0 1 1 0 1 0 1 0 1 1 0 0 1 0 1 0 1 0 1 0 0 1 0 1 0 0 0 0 1 0 1 0 0 0 1 1 0 0 0 0 0 0 0 1 1 0 1 0
    1    1 1 0 1 0 0 0 1 0 1 0 0 1 0 0 1 0 1 1 0 1 1 0 0 1 1 1 0 0 1 0 0 0 1 0 1 1 0 1 0 1 0 1 0 1 0 0 1 0 1 1
    1    1 1 1 0 0 1 0 1 1 1 1 0 1 0 0 1 0 1 1 1 0 1 1 0 0 1 0
   44    0 1 0 0 1 1 0 1 0 1 0 1 1 0 1 1 0 1 0 1 0 1 0 0 1 0 1 0 0 0 0 0 0 1 0 0 0 1 1 0 0 0 0 0 0 0 1 1 0 1 0
    1    1 1 0 1 0 0 0 0 0 1 0 0 1 0 0 1 0 1 1 0 0 1 0 0 0 1 1 0 0 1 0 0 0 1 0 1 1 0 1 0 1 0 1 0 1 0 0 1 0 1 1
    1    1 1 1 0 0 1 0 1 1 1 0 0 1 1 1 0 1 1 0 1 0 1 1 0 0 1 0
   45    0 1 0 0 1 1 0 1 0 1 0 1 1 0 0 0 1 0 1 0 0 1 0 0 1 0 1 0 0 0 0 0 0 0 0 0 0 1 1 0 0 0 0 0 0 0 1 1 0 1 0
    1    1 1 0 1 0 1 1 1 0 1 0 0 0 0 0 0 0 0 1 0 1 1 0 0 0 1 1 0 0 1 0 0 0 1 0 1 0 0 0 0 1 0 1 0 1 0 0 1 0 1 1
    1    1 1 1 0 0 1 0 1 1 1 1 0 1 1 1 1 0 1 0 1 0 1 1 0 0 1 0
   46    0 1 0 0 1 1 0 1 0 1 0 1 1 0 0 1 0 1 1 1 0 1 0 0 1 0 1 0 0 0 0 0 0 0 1 0 0 1 1 0 0 0 0 0 0 0 1 1 0 1 0
    1    1 1 0 1 0 0 0 1 0 1 0 0 1 1 0 1 0 0 1 0 0 1 1 0 1 1 1 0 0 1 0 0 0 1 0 1 1 0 1 0 1 0 1 0 1 0 0 1 0 1 1
    1    1 1 1 0 0 1 0 1 1 1 1 0 1 1 0 1 0 1 0 1 0 1 1 0 0 1 0
   47    0 1 0 0 1 1 0 1 0 1 0 1 1 0 0 0 0 1 1 1 0 1 0 0 1 0 1 0 0 1 0 0 0 1 0 0 1 1 1 0 0 0 0 0 0 0 1 1 0 1 0
    1    1 1 0 1 0 1 0 1 0 1 0 0 1 1 0 1 0 0 1 0 1 0 1 0 0 1 1 0 0 1 0 0 0 1 0 1 1 0 1 0 1 0 1 0 1 0 0 1 0 1 1
    1    1 1 1 0 0 1 0 1 1 1 0 1 1 1 1 0 0 1 0 1 0 1 1 0 0 1 0
   48    0 1 0 0 1 1 0 1 0 1 0 1 1 0 0 1 0 1 1 1 0 1 0 0 1 0 1 0 0 0 0 0 0 1 0 0 0 1 1 0 0 0 0 0 0 0 1 1 0 1 0
    1    1 1 0 1 0 1 0 1 0 1 0 0 1 0 0 1 0 1 1 1 1 1 0 0 0 1 1 0 0 1 0 0 0 1 0 1 1 0 1 0 1 0 1 0 1 0 0 1 0 1 1
    1    1 1 1 0 0 1 0 1 1 1 1 0 1 1 0 1 0 1 1 1 0 1 1 0 0 1 0
   49    0 1 0 0 1 1 0 1 0 1 0 1 1 0 0 1 0 1 1 1 0 1 0 0 1 0 1 0 0 0 0 0 0 1 0 0 0 1 1 0 0 0 0 0 0 0 1 1 0 1 0
    1    1 1 0 1 1 0 0 1 0 1 0 1 1 0 0 1 0 1 1 0 1 1 0 0 0 1 1 0 0 1 0 0 0 1 0 1 1 0 1 0 1 0 1 0 1 0 0 1 0 1 1
    0    1 1 1 0 0 1 0 1 1 1 0 0 1 1 1 1 0 1 0 1 0 1 1 0 0 1 0
   50    0 1 0 0 1 1 0 1 0 1 0 1 1 0 0 0 0 1 1 1 0 1 0 0 1 0 1 0 0 0 0 1 0 1 0 0 0 1 1 0 0 0 0 0 0 0 1 1 0 1 0
    1    1 1 0 1 1 0 1 1 0 1 0 0 1 0 0 0 0 0 1 0 1 1 0 0 0 1 1 0 0 1 0 0 0 1 0 1 1 0 1 0 1 0 1 0 1 0 0 1 0 1 1
    0    1 1 1 0 0 1 0 1 1 1 0 0 1 1 1 1 0 1 0 1 0 1 1 0 0 1 0
   51    0 1 0 0 1 1 0 1 0 1 0 1 1 0 0 0 0 1 1 1 1 1 0 0 1 0 1 0 0 0 0 1 0 1 0 0 0 1 1 0 0 0 0 0 0 0 1 1 0 1 0
    1    1 1 0 1 1 0 0 1 0 1 0 1 1 0 0 1 0 0 1 0 1 1 1 0 1 1 1 0 0 1 0 0 0 1 0 1 1 0 0 0 1 0 1 0 1 0 0 1 0 1 1
    0    1 1 1 0 0 1 0 1 1 1 0 0 1 1 0 1 0 1 0 1 0 1 1 0 0 1 0
   52    0 1 0 0 1 1 0 1 0 1 0 1 1 0 0 1 0 1 1 1 0 1 0 0 1 0 1 0 0 0 0 0 0 0 0 0 0 1 1 0 0 0 0 0 0 0 1 1 0 1 0
    1    1 1 0 1 1 0 0 1 0 1 0 1 1 0 0 1 0 1 1 0 0 1 1 0 1 1 1 0 0 1 0 0 0 1 0 1 1 0 0 0 1 0 1 0 1 0 0 1 0 1 1
    0    1 1 1 0 0 1 0 1 1 1 1 0 1 1 0 1 0 1 0 1 0 1 1 0 0 1 0
   53    0 1 0 0 1 1 0 1 0 1 0 1 1 0 0 1 0 1 1 1 1 1 0 0 1 0 1 0 0 1 0 1 0 1 0 0 1 1 1 0 0 0 0 0 0 0 1 1 0 1 0
    1    1 1 0 1 1 0 0 1 0 1 0 0 1 1 0 1 0 1 1 0 1 1 0 0 1 1 1 0 0 1 0 0 0 1 0 1 1 0 1 0 1 0 1 0 1 0 0 1 0 1 1
    1    1 1 1 0 0 1 0 1 1 0 0 0 1 1 1 1 0 1 1 1 0 1 1 0 0 1 0
   54    0 1 0 0 1 1 0 1 0 1 0 0 1 0 0 1 0 1 1 1 0 1 0 0 1 0 1 0 0 0 0 1 0 0 0 0 0 1 1 0 0 0 0 0 0 0 1 1 0 1 0
    1    1 1 1 1 1 0 0 1 0 1 0 1 1 0 0 1 0 0 1 0 0 1 1 0 1 1 1 0 0 1 0 0 0 1 0 1 1 0 1 0 1 0 1 0 1 0 0 1 0 1 1
    0    1 1 1 0 0 1 0 0 1 1 0 0 1 1 0 1 0 1 0 0 0 1 1 0 0 1 0
   8800000.00000000        1618033.00000000       0.000000000000000E+000
  1.136363636363636E-007   6714762.00000000        2540149.00000000     
           1          26           2
   737779.000000000        3013085.00000000        7266686.00000000     
   1789438.00000000        8516424.00000000        2415094.00000000     
   1028880.00000000        1895021.00000000        6209529.00000000     
   3382189.00000000        305781.000000000        6743250.00000000     
   3746223.00000000        436548.000000000        1474927.00000000     
   5540850.00000000        1928145.00000000        3162076.00000000     
   3491884.00000000        2961329.00000000        5457852.00000000     
   7830362.00000000        7906804.00000000        518858.000000000     
   148632.000000000        6714762.00000000        7463249.00000000     
   5149452.00000000        6493150.00000000        1237131.00000000     
   4499182.00000000        7995031.00000000        8065876.00000000     
   5362756.00000000        729068.000000000        6531064.00000000     
   3820918.00000000        4804460.00000000        1938051.00000000     
   5461705.00000000        4346410.00000000        8513304.00000000     
   5410306.00000000        4879865.00000000        1538602.00000000     
   1148449.00000000        4427210.00000000        5458313.00000000     
   5062823.00000000        1365947.00000000        1524914.00000000     
   6451011.00000000        873543.000000000        4041909.00000000     
   7234749.00000000     
   8800000.00000000        1618033.00000000       0.000000000000000E+000
  1.136363636363636E-007   5266166.00000000        2129117.00000000     
           1          40          16
   4107383.00000000        4102032.00000000        555339.000000000     
   4953034.00000000        7786221.00000000        5220208.00000000     
   457422.000000000        7993520.00000000        1732505.00000000     
   6238466.00000000        7650323.00000000        1346586.00000000     
   8364755.00000000        3054048.00000000        2305807.00000000     
   3937868.00000000        5005301.00000000        7537872.00000000     
   6338796.00000000        7871263.00000000        4861374.00000000     
   4836178.00000000        1665997.00000000        6000529.00000000     
   3379092.00000000        3395063.00000000        1714978.00000000     
   7519102.00000000        8309521.00000000        2561181.00000000     
   3578970.00000000        8064131.00000000        7580824.00000000     
   5347802.00000000        2171815.00000000        4724312.00000000     
   4937521.00000000        7046159.00000000        982032.000000000     
   5266166.00000000        7298147.00000000        4431326.00000000     
   1144326.00000000        8275917.00000000        4663777.00000000     
   2355590.00000000        6326693.00000000        1327583.00000000     
   4681971.00000000        7358198.00000000        6029795.00000000     
   7344133.00000000        340351.000000000        8681920.00000000     
   8365586.00000000     
