          76          54   1.00000000000000     
    1       2    0 1 0 1 0 1 0 1 0 0 1 0 1 0 1 1 1 0 1 0 1 0 1 0 0 1 0 0 1 0 1 0 1 1 0 0 1 1 1 0 1 0 0 0 0 0 0 1 1 0 0
    1       0    0 1 0 0 1 1 1 1 0 1 0 1 1 1 0 0 1 1 0 0 1 0 0 1 1 1 0 0 0 0 0 0 1 1 0 0 1 1 0 0 1 1 1 1 0 0 0 1 0 0 1
    1       0    1 0 1 0 0 0 1 1 1 0 1 1 1 0 0 1 1 0 0 1 1 0 0 1 1
    2       2    0 1 0 1 0 1 0 1 0 0 1 0 1 0 0 1 1 0 1 1 1 0 0 0 0 1 0 1 1 1 1 0 1 0 0 0 0 1 1 0 1 0 0 0 0 0 0 1 1 0 0
    1       0    0 1 0 0 1 1 0 1 0 0 0 1 1 1 0 0 0 1 0 0 1 0 1 1 1 1 0 0 0 0 0 0 1 1 0 1 1 1 0 0 0 1 1 1 0 0 0 1 0 0 1
    1       0    1 0 1 0 0 0 1 1 1 1 0 1 0 1 0 1 0 0 0 1 1 0 0 1 1
    3       2    0 1 0 1 0 1 0 1 0 0 1 0 1 0 1 1 1 0 0 0 1 0 1 0 0 1 0 0 1 0 1 1 1 1 0 0 1 1 1 0 1 0 0 0 0 0 0 1 1 0 0
    1       0    0 1 0 0 1 1 1 1 0 1 0 1 1 1 0 0 1 1 0 0 1 0 0 1 1 1 0 0 0 0 0 0 1 1 0 0 1 1 0 0 1 1 1 1 0 0 0 1 0 0 1
    1       0    1 0 1 0 0 0 1 1 1 0 1 1 1 0 0 1 0 1 0 1 1 0 0 1 1
    4       2    0 1 0 1 0 1 0 1 0 0 1 0 1 0 0 1 1 0 0 0 1 0 1 0 0 1 0 0 1 0 1 0 1 0 0 0 1 1 1 0 1 0 0 0 0 0 0 1 1 0 0
    1       0    0 1 0 0 1 1 0 1 0 1 0 1 1 1 0 0 0 0 0 0 1 0 1 1 1 1 0 0 0 0 0 0 1 1 0 0 1 0 1 0 1 1 1 1 0 0 0 1 0 0 1
    1       0    1 0 1 0 0 0 1 1 1 0 0 1 1 0 0 1 0 0 0 1 1 0 0 1 1
    5       2    0 1 0 1 0 1 0 1 0 0 1 0 1 0 1 1 1 0 1 0 1 0 1 0 0 1 0 0 1 0 1 0 1 1 0 0 1 1 1 0 1 0 0 0 0 0 0 1 1 0 0
    1       0    0 1 0 0 1 1 1 1 0 1 0 1 1 1 0 0 1 1 0 0 1 0 0 1 1 1 0 0 0 0 0 0 1 1 0 0 1 1 0 0 1 1 1 1 0 0 0 1 0 0 1
    1       0    1 0 1 0 0 0 1 1 1 0 1 1 1 0 0 1 1 0 0 1 1 0 0 1 1
    6       2    0 1 0 1 0 1 0 1 0 0 1 0 0 0 0 1 1 1 0 1 1 0 1 1 0 1 0 0 1 1 1 0 1 1 0 0 0 1 1 0 1 0 0 0 0 0 0 1 1 0 0
    1       0    0 1 0 0 1 1 0 1 0 1 1 0 1 1 0 0 1 1 0 0 1 0 1 0 1 1 0 0 0 0 0 0 1 1 0 0 1 0 1 1 0 1 1 1 0 0 0 1 0 0 1
    1       0    1 0 1 0 0 0 1 1 1 1 0 1 1 0 0 1 0 0 0 1 1 0 0 1 1
    7       2    0 1 0 1 0 1 0 1 0 0 1 0 1 0 0 1 1 0 0 0 1 0 1 0 0 1 0 0 1 1 1 0 0 1 0 0 0 1 1 0 1 0 0 0 0 0 0 1 1 0 0
    1       0    0 1 0 0 1 1 1 1 0 1 0 1 1 1 0 0 1 1 0 0 1 0 1 1 1 1 0 0 0 0 0 0 1 0 0 0 1 0 0 0 1 1 1 1 0 0 0 1 0 0 1
    1       0    1 0 1 0 0 0 1 1 0 0 0 1 1 0 0 1 1 0 0 1 1 0 0 1 1
    8       2    0 1 0 1 0 1 0 1 0 0 1 0 1 0 0 1 1 0 1 0 1 0 1 0 0 1 0 1 1 0 1 0 0 0 0 0 0 1 1 0 1 0 0 0 0 0 0 1 1 0 0
    1       0    0 1 0 0 1 1 0 1 0 1 0 1 0 1 0 0 1 1 1 0 1 0 0 1 1 1 0 0 0 0 0 0 1 1 0 0 1 1 1 0 1 1 1 1 0 0 0 1 0 0 1
    1       0    1 0 1 0 0 0 1 1 1 1 1 1 1 0 0 1 0 0 0 1 1 0 0 1 1
    9       2    0 1 0 1 0 1 0 1 0 0 1 0 1 0 1 1 1 0 1 0 1 0 1 0 0 1 0 0 1 0 0 0 1 1 0 0 1 1 1 0 1 0 0 0 0 0 0 1 1 0 0
    1       0    0 1 0 0 1 1 1 1 0 1 0 1 1 1 0 0 1 1 0 0 1 0 0 1 1 1 0 0 0 0 0 0 1 1 0 0 1 1 0 0 1 1 1 1 0 0 0 1 0 0 1
    1       0    1 0 1 0 0 0 1 1 1 0 1 1 1 0 0 1 1 0 0 1 1 0 0 1 1
   10       2    0 1 0 1 0 1 0 1 0 0 1 0 1 0 1 1 1 0 1 0 1 0 1 0 0 1 0 0 1 0 1 0 1 1 0 0 1 1 1 0 1 0 0 0 0 0 0 1 1 0 0
    1       0    0 1 0 0 1 1 1 1 0 1 0 1 1 1 0 0 1 1 0 0 1 0 0 1 1 1 0 0 0 0 0 0 1 1 0 0 1 1 0 0 1 1 1 1 0 0 0 1 0 0 1
    1       0    1 0 1 0 0 0 1 1 1 0 1 1 1 0 0 1 1 0 0 1 1 0 0 1 1
   11       2    0 1 0 1 0 1 0 1 0 0 1 0 1 0 1 1 1 0 1 0 1 0 1 0 0 1 0 0 1 0 1 0 0 1 0 0 0 1 1 0 1 0 0 0 0 0 0 1 1 0 0
    1       0    0 1 0 0 1 0 1 1 0 1 0 1 1 1 0 0 1 1 0 0 1 0 1 0 1 1 0 0 0 0 0 0 1 1 0 0 1 0 0 0 1 1 1 1 0 0 0 1 0 0 1
    1       0    1 0 1 0 0 0 1 1 0 0 1 1 1 0 0 1 1 0 0 1 1 0 0 1 1
   12       2    0 1 0 1 0 1 0 1 0 0 1 0 1 0 1 1 1 0 1 0 1 0 1 0 0 1 0 1 1 0 1 0 1 1 0 0 0 1 1 0 1 0 0 0 0 0 0 1 1 0 0
    1       0    0 1 0 0 1 1 1 1 0 1 0 1 1 1 0 0 1 0 0 0 1 0 1 1 1 1 0 0 0 0 0 0 1 1 0 0 1 1 0 0 0 1 1 1 0 0 0 1 0 0 1
    1       0    1 0 1 0 0 0 1 1 1 0 0 1 1 0 0 1 0 0 0 1 1 0 0 1 1
   13       2    0 1 0 1 0 1 0 1 0 0 1 0 1 0 0 1 1 1 0 1 1 0 1 1 0 1 0 0 1 1 1 0 1 1 0 0 0 1 1 0 1 0 0 0 0 0 0 1 1 0 0
    1       0    0 1 0 0 1 1 0 1 0 1 0 1 1 1 0 0 1 1 0 0 1 0 1 0 1 1 0 0 0 0 0 0 1 0 0 0 1 0 0 1 1 1 1 1 0 0 0 1 0 0 1
    1       0    1 0 1 0 0 0 1 1 1 0 0 1 1 0 0 1 1 0 0 1 1 0 0 1 1
   14       2    0 1 0 1 0 1 0 1 0 0 1 0 1 0 1 1 0 0 1 0 1 0 1 0 0 1 0 0 1 0 0 0 1 1 0 0 1 1 1 0 1 0 0 0 0 0 0 1 1 0 0
    1       0    0 1 0 0 1 1 1 1 0 1 0 1 1 1 0 0 1 1 0 0 1 0 0 1 1 1 0 0 0 0 0 0 1 1 0 0 1 1 0 0 1 1 1 1 0 0 0 1 0 0 1
    1       0    1 0 1 0 0 0 1 1 1 0 1 1 1 0 0 1 1 0 0 1 1 0 0 1 1
   15       2    0 1 0 1 0 1 0 1 0 0 1 0 1 0 1 1 1 0 1 0 1 0 1 0 0 1 0 0 1 0 1 0 1 1 0 0 1 1 1 0 1 0 0 0 0 0 0 1 1 0 0
    1       0    0 1 0 0 1 1 1 1 0 1 0 1 1 1 0 0 1 1 0 0 1 0 0 1 1 1 0 0 0 0 0 0 1 1 0 0 1 1 0 0 1 1 1 1 0 0 0 1 0 0 1
    1       0    1 0 1 0 0 0 1 1 1 0 1 1 1 0 0 1 1 0 0 1 1 0 0 1 1
   16       2    0 1 0 1 0 1 0 1 0 0 1 0 1 0 0 1 1 0 0 0 1 0 1 0 0 1 0 1 1 0 1 0 1 0 0 0 1 1 1 0 1 0 0 0 0 0 0 1 1 0 0
    1       0    0 1 0 0 1 1 1 1 0 1 0 1 1 1 0 0 0 0 0 0 1 0 1 1 1 1 0 0 0 0 0 0 1 1 0 0 1 0 0 0 0 1 1 1 0 0 0 1 0 0 1
    1       0    1 0 1 0 0 0 1 1 1 0 0 1 1 0 0 1 0 0 0 1 1 0 0 1 1
   17       2    0 1 0 1 0 1 0 1 0 0 1 0 1 0 1 1 1 0 1 0 1 0 1 0 0 1 0 1 1 1 1 0 1 1 0 0 1 1 1 0 1 0 0 0 0 0 0 1 1 0 0
    1       0    0 1 0 0 1 1 0 1 0 1 0 1 1 1 0 0 1 1 0 0 1 0 1 1 1 1 0 0 0 0 0 0 1 1 0 0 1 1 1 0 1 1 1 1 0 0 0 1 0 0 1
    1       0    1 0 1 0 0 0 1 1 1 1 0 1 1 0 0 1 1 0 0 1 1 0 0 1 1
   18       2    0 1 0 1 0 1 0 1 0 0 1 0 1 0 0 1 1 0 0 0 1 0 1 0 0 1 0 0 1 0 1 0 1 0 0 0 0 1 1 0 1 0 0 0 0 0 0 1 1 0 0
    1       0    0 1 0 0 1 1 0 1 0 1 0 0 1 1 0 0 1 0 0 0 1 0 1 1 1 1 0 0 0 0 0 0 1 0 0 0 1 0 0 0 1 1 1 1 0 0 0 1 0 0 1
    1       0    1 0 1 0 0 0 1 1 0 0 0 1 1 0 0 1 0 0 0 1 1 0 0 1 1
   19       2    0 1 0 1 0 1 0 1 0 0 1 0 1 0 1 1 1 0 1 0 1 0 1 0 0 1 0 0 1 0 1 0 1 1 0 0 0 1 1 0 1 0 0 0 0 0 0 1 1 0 0
    1       0    0 1 0 0 1 1 0 1 0 0 0 1 1 1 0 0 0 1 0 0 1 0 1 1 1 1 0 0 0 0 0 0 1 1 0 0 1 1 0 0 1 1 1 1 0 0 0 1 0 0 1
    1       0    1 0 1 0 0 0 1 1 1 0 0 1 0 0 0 1 1 0 0 1 1 0 0 1 1
   20       2    0 1 0 1 0 1 0 1 0 0 1 0 1 0 0 1 1 0 0 0 1 0 1 1 0 1 0 1 1 1 1 0 0 0 0 0 0 1 1 0 1 0 0 0 0 0 0 1 1 0 0
    1       0    0 1 0 0 1 1 0 1 0 1 1 0 1 1 1 0 1 1 0 0 1 0 1 1 1 1 0 0 0 0 0 0 1 1 0 0 1 1 1 0 0 1 1 1 0 0 0 1 0 0 1
    1       0    1 0 1 0 0 0 1 1 1 1 0 1 1 0 0 1 0 0 0 1 1 0 0 1 1
   21       2    0 1 0 1 0 1 0 1 0 0 1 0 0 0 0 1 1 1 0 1 0 1 1 0 0 1 0 0 1 0 1 0 1 1 0 0 1 1 1 0 1 0 0 0 0 0 0 1 1 0 0
    1       0    0 1 0 0 1 1 0 0 0 1 0 0 1 1 0 0 1 1 0 0 1 0 1 1 1 1 0 0 0 0 0 0 1 0 0 0 1 1 0 1 1 1 1 1 0 0 0 1 0 0 1
    1       0    1 0 1 0 0 0 1 1 1 1 0 1 1 0 0 1 0 1 0 1 1 0 0 1 1
   22       2    0 1 0 1 0 1 0 1 0 0 1 0 1 0 1 1 1 0 1 0 1 0 1 0 0 1 0 0 1 0 0 0 1 1 0 0 1 1 1 0 1 0 0 0 0 0 0 1 1 0 0
    1       0    0 1 0 0 1 1 1 1 0 0 0 1 1 1 0 0 1 1 0 0 1 0 0 1 1 1 0 0 0 0 0 0 1 1 0 0 0 1 0 0 1 1 1 1 0 0 0 1 0 0 1
    1       0    1 0 1 0 0 0 1 1 1 0 1 1 1 0 0 1 1 0 0 1 1 0 0 1 1
   23       2    0 1 0 1 0 1 0 1 0 0 1 0 1 0 0 1 1 0 1 0 1 0 1 0 0 1 0 1 1 0 1 0 1 0 0 0 1 1 1 0 1 0 0 0 0 0 0 1 1 0 0
    1       0    0 1 0 0 1 1 1 1 0 1 0 1 1 1 0 1 0 1 0 0 1 0 1 1 1 1 0 0 0 0 0 0 1 1 0 1 1 1 0 0 0 1 1 1 0 0 0 1 0 0 1
    1       0    1 0 1 0 0 0 1 1 1 1 0 1 1 0 0 1 1 0 0 1 1 0 0 1 1
   24       2    0 1 0 1 0 1 0 1 0 0 1 0 0 0 1 1 1 0 0 0 1 1 1 1 0 1 0 0 1 0 1 0 1 1 0 0 0 1 1 0 1 0 0 0 0 0 0 1 1 0 0
    1       0    0 1 0 0 1 1 1 1 0 1 0 1 1 0 0 0 1 1 0 0 1 0 1 1 1 1 0 0 0 0 0 0 1 0 0 0 1 1 1 0 0 1 1 1 0 0 0 1 0 0 1
    1       0    1 0 1 0 0 0 1 1 1 0 1 0 1 0 0 1 1 0 0 1 1 0 0 1 1
   25       2    0 1 0 1 0 1 0 1 0 0 1 0 1 0 0 1 1 0 0 0 1 0 1 0 0 1 0 1 1 0 1 0 0 0 0 0 1 1 1 0 1 0 0 0 0 0 0 1 1 0 0
    1       0    0 1 0 0 1 1 0 1 0 1 1 0 1 1 0 0 1 1 0 0 1 0 0 1 1 1 0 0 0 0 0 0 1 0 0 0 1 1 1 0 1 1 1 1 0 0 0 1 0 0 1
    1       0    1 0 1 0 0 0 1 1 1 1 1 1 1 0 0 1 0 0 0 1 1 0 0 1 1
   26       2    0 1 0 1 0 1 0 1 0 0 1 0 1 0 1 1 1 0 1 0 1 0 1 0 1 1 0 1 1 0 1 0 1 1 0 0 0 1 1 0 1 0 0 0 0 0 0 1 1 0 0
    1       0    0 1 0 0 1 1 1 1 0 1 0 1 1 1 0 0 1 0 0 0 1 0 0 0 1 1 0 0 0 0 0 0 1 1 0 0 1 0 0 0 0 1 1 1 0 0 0 1 0 0 1
    1       0    1 0 1 0 0 0 1 1 0 0 1 1 1 0 0 1 1 0 0 1 1 0 0 1 1
   27       2    0 1 0 1 0 1 0 1 0 0 1 0 1 1 0 1 1 0 1 0 1 0 1 0 0 1 0 0 1 0 1 0 1 1 0 0 1 1 1 0 1 0 0 0 0 0 0 1 1 0 0
    1       0    0 1 0 0 1 1 1 1 0 1 0 1 1 0 0 0 1 1 0 0 1 0 0 1 1 1 0 0 0 0 0 0 1 1 0 0 1 1 1 0 0 1 1 1 0 0 0 1 0 0 1
    1       0    1 0 1 0 0 0 1 1 1 0 0 1 1 0 0 1 1 0 0 1 1 0 0 1 1
   28       2    0 1 0 1 0 1 0 1 0 0 1 0 1 0 1 1 1 0 1 0 1 0 1 0 0 1 0 0 1 0 1 0 1 1 0 0 1 1 1 0 1 0 0 0 0 0 0 1 1 0 0
    1       0    0 1 0 0 1 1 1 1 0 1 0 1 1 1 0 0 1 1 0 0 1 0 0 1 1 1 0 0 0 0 0 0 1 1 0 0 1 1 0 0 1 1 1 1 0 0 0 1 0 0 1
    1       0    1 0 1 0 0 0 1 1 1 0 1 1 1 0 0 1 1 0 0 1 1 0 0 1 1
   29       2    0 1 0 1 0 1 0 1 0 0 1 0 1 0 0 1 1 0 0 1 1 0 1 1 0 1 0 0 1 1 1 0 0 1 0 0 0 1 1 0 1 0 0 0 0 0 0 1 1 0 0
    1       0    0 1 0 0 1 1 1 1 0 1 1 0 0 0 1 0 1 1 0 0 1 0 1 1 1 1 0 0 0 0 0 0 1 1 0 0 1 1 1 0 0 1 1 1 0 0 0 1 0 0 1
    1       0    1 0 1 0 0 0 1 1 1 0 0 1 1 0 0 1 0 0 0 1 1 0 0 1 1
   30       2    0 1 0 1 0 1 0 1 0 0 1 0 0 0 0 1 1 0 0 0 1 1 1 1 0 1 0 1 1 0 1 0 1 1 0 0 0 1 1 0 1 0 0 0 0 0 0 1 1 0 0
    1       0    0 1 0 0 1 1 1 1 0 1 0 1 1 0 0 0 1 0 0 0 1 0 1 1 1 1 0 0 0 0 0 0 1 0 0 0 1 1 0 0 0 1 1 1 0 0 0 1 0 0 1
    1       0    1 0 1 0 0 0 1 1 1 0 1 0 1 0 0 1 1 0 0 1 1 0 0 1 1
   31       2    0 1 0 1 0 1 0 1 0 0 1 0 1 0 0 1 1 0 1 0 1 0 1 0 0 1 0 1 1 0 1 0 1 0 0 0 0 1 1 0 1 0 0 0 0 0 0 1 1 0 0
    1       0    0 1 0 0 1 1 0 1 0 1 1 0 1 1 1 0 1 1 0 0 1 0 1 1 1 1 0 0 0 0 0 0 1 1 0 0 1 1 0 0 0 1 1 1 0 0 0 1 0 0 1
    1       0    1 0 1 0 0 0 1 1 1 1 0 1 1 0 0 1 0 0 0 1 1 0 0 1 1
   32       2    0 1 0 1 0 1 0 1 0 0 1 0 1 0 1 1 1 0 1 0 1 0 1 0 0 1 0 1 1 1 1 0 0 0 0 0 0 1 1 0 1 0 0 0 0 0 0 1 1 0 0
    1       0    0 1 0 0 1 1 1 1 0 1 1 0 1 1 0 0 1 1 0 0 1 0 1 0 1 1 0 0 0 0 0 0 1 1 0 0 1 1 1 0 1 1 1 1 0 0 0 1 0 0 1
    1       0    1 0 1 0 0 0 1 1 0 0 0 1 1 0 0 1 0 0 0 1 1 0 0 1 1
   33       2    0 1 0 1 0 1 0 1 0 0 1 0 1 0 1 1 1 0 0 0 1 0 1 0 0 1 0 0 1 0 1 0 1 1 0 0 1 1 1 0 1 0 0 0 0 0 0 1 1 0 0
    1       0    0 1 0 0 1 1 1 1 0 1 0 1 0 1 0 0 0 1 1 0 1 0 1 1 1 1 0 0 0 0 0 0 1 1 0 0 1 1 1 0 0 1 1 1 0 0 0 1 0 0 1
    1       0    1 0 1 0 0 0 1 1 1 0 0 1 1 0 0 1 1 0 0 1 1 0 0 1 1
   34       2    0 1 0 1 0 1 0 1 0 0 1 0 1 0 0 1 1 0 1 0 1 0 1 0 0 1 0 0 1 0 1 0 1 0 0 0 1 1 1 0 1 0 0 0 0 0 0 1 1 0 0
    1       0    0 1 0 0 1 1 0 1 0 1 0 1 1 1 0 0 1 0 0 0 1 0 0 1 1 1 0 0 0 0 0 0 1 1 0 0 1 1 0 0 1 1 1 1 0 0 0 1 0 0 1
    1       0    1 0 1 0 0 0 1 1 1 0 1 1 1 0 0 1 0 0 0 1 1 0 0 1 1
   35       2    0 1 0 1 0 1 0 1 0 0 1 0 1 0 1 1 1 0 0 0 1 0 1 0 0 1 0 0 1 0 1 0 1 0 0 0 1 1 1 0 1 0 0 0 0 0 0 1 1 0 0
    1       0    0 1 0 0 1 0 0 1 0 1 0 1 1 0 0 0 0 0 0 0 1 0 1 1 1 1 0 0 0 0 0 0 1 0 0 0 1 1 1 0 1 1 1 1 0 0 0 1 0 0 1
    1       0    1 0 1 0 0 0 1 1 1 0 1 1 1 0 0 1 0 0 0 1 1 0 0 1 1
   36       2    0 1 0 1 0 1 0 1 0 0 1 0 1 0 1 1 1 0 1 0 1 0 0 1 0 1 0 0 1 1 1 0 1 1 0 0 0 1 1 0 1 0 0 0 0 0 0 1 1 0 0
    1       0    0 1 0 0 1 1 1 1 0 1 1 0 1 0 1 0 1 1 0 0 1 0 1 0 1 1 0 0 0 0 0 0 1 1 0 0 1 1 1 0 0 1 1 1 0 0 0 1 0 0 1
    1       0    1 0 1 0 0 0 1 1 1 0 1 1 1 0 0 1 1 0 0 1 1 0 0 1 1
   37       2    0 1 0 1 0 0 0 1 0 0 1 0 0 0 0 1 1 1 0 0 1 1 1 0 0 1 0 1 1 0 1 0 0 1 0 0 1 1 1 0 1 0 0 0 0 0 0 1 1 0 0
    1       0    0 1 0 0 1 1 0 0 0 1 0 0 1 1 0 0 1 1 0 0 1 0 1 1 1 1 0 0 0 0 0 0 1 0 0 0 1 1 0 0 1 1 1 1 0 0 0 1 0 0 1
    1       0    1 0 1 0 0 0 1 1 1 1 0 1 1 0 0 1 0 1 0 1 1 0 0 1 1
   38       2    0 1 0 1 0 1 0 1 0 0 1 0 1 0 1 1 0 0 1 1 1 0 0 0 0 1 0 0 1 0 1 0 0 1 0 0 0 1 1 0 1 0 0 0 0 0 0 1 1 0 0
    1       0    0 1 0 0 1 1 0 1 0 1 0 1 1 1 0 0 0 1 1 0 1 0 1 1 1 1 0 0 0 0 0 0 1 1 0 0 1 1 0 1 0 1 1 1 0 0 0 1 0 0 1
    1       0    1 0 1 0 0 0 1 1 1 0 0 1 1 0 0 1 0 0 0 1 1 0 0 1 1
   39       2    0 1 0 1 0 1 0 1 0 0 1 0 1 0 0 1 1 0 0 0 1 0 1 0 1 1 0 1 1 1 1 0 1 0 0 0 1 1 1 0 1 0 0 0 0 0 0 1 1 0 0
    1       0    0 1 0 0 1 1 1 1 0 0 0 1 0 1 0 0 0 1 0 0 1 0 1 1 1 1 0 0 0 0 0 0 1 1 0 1 1 1 1 0 0 1 1 1 0 0 0 1 0 0 1
    1       0    1 0 1 0 0 0 1 1 1 1 0 1 0 1 0 1 1 0 0 1 1 0 0 1 1
   40       2    0 1 0 1 0 1 0 1 0 0 1 0 1 0 1 1 1 0 1 0 1 0 1 0 0 1 0 0 1 0 1 0 1 1 0 0 1 1 1 0 1 0 0 0 0 0 0 1 1 0 0
    1       0    0 1 0 0 1 1 1 1 0 1 0 1 1 0 0 0 0 1 0 0 1 1 0 1 1 1 0 0 0 0 0 0 1 0 0 0 1 1 1 0 1 1 1 1 0 0 0 1 0 0 1
    1       0    1 0 1 0 0 0 1 1 1 0 1 1 1 0 0 1 1 0 0 1 1 0 0 1 1
   41       2    0 1 0 1 0 1 0 1 0 0 1 0 1 0 0 1 1 0 0 0 1 1 1 0 0 1 0 0 1 0 0 0 1 1 0 0 0 1 1 0 1 0 0 0 0 0 0 1 1 0 0
    1       0    0 1 0 0 1 1 1 1 0 1 0 1 1 1 0 0 1 0 0 0 1 0 1 1 1 1 0 0 0 0 0 0 1 1 0 0 1 1 0 0 0 1 1 1 0 0 0 1 0 0 1
    1       0    1 0 1 0 0 0 1 1 1 0 1 0 1 0 0 1 1 0 0 1 1 0 0 1 1
   42       2    0 1 0 1 0 1 0 1 0 0 1 0 1 1 0 1 1 0 0 0 1 0 1 0 0 1 0 0 1 0 1 0 0 0 0 0 0 1 1 0 1 0 0 0 0 0 0 1 1 0 0
    1       0    0 1 0 0 1 1 0 1 0 1 0 0 1 1 0 0 1 0 0 0 0 0 1 1 1 1 0 0 0 0 0 0 1 0 0 0 1 0 0 0 1 1 1 1 0 0 0 1 0 0 1
    1       0    1 0 1 0 0 0 1 1 0 0 0 1 1 0 0 1 0 0 0 1 1 0 0 1 1
   43       2    0 1 0 1 0 1 0 1 0 0 1 0 1 0 0 1 1 0 1 1 1 0 0 0 0 0 0 1 1 0 1 0 1 0 1 0 0 1 1 0 1 0 0 0 0 0 0 1 1 0 0
    1       0    0 1 0 0 1 1 0 1 0 1 1 1 1 1 1 0 1 1 0 0 1 0 1 1 1 1 0 0 0 0 0 0 1 1 0 0 1 1 0 0 0 1 1 1 0 0 0 1 0 0 1
    1       0    1 0 1 0 0 0 1 1 1 1 0 1 0 0 0 1 0 0 0 1 1 0 0 1 1
   44       2    0 1 0 1 0 1 0 1 0 0 1 0 0 0 0 1 1 1 0 0 0 1 1 0 0 1 0 0 1 1 1 0 1 1 0 0 1 1 1 0 1 0 0 0 0 0 0 1 1 0 0
    1       0    0 1 0 0 1 1 0 0 0 1 0 1 1 1 0 0 1 1 0 0 1 0 1 1 1 1 0 0 0 0 0 0 1 1 0 0 1 1 0 0 1 1 1 1 0 0 0 1 0 0 1
    1       0    1 0 1 0 0 0 1 1 1 1 0 1 1 0 0 1 1 0 0 1 1 0 0 1 1
   45       2    0 1 0 1 0 1 0 1 0 0 1 0 0 0 0 1 1 0 0 0 1 1 1 0 0 1 0 0 1 0 1 0 1 1 0 0 1 1 1 0 1 0 0 0 0 0 0 1 1 0 0
    1       0    0 1 0 0 1 1 1 0 0 0 0 0 1 1 0 0 1 1 0 0 1 0 0 1 1 1 0 0 0 0 0 0 1 0 0 0 1 1 0 0 1 1 1 1 0 0 0 1 0 0 1
    1       0    1 0 1 0 0 0 1 1 1 1 1 1 1 0 0 1 1 0 0 1 1 0 0 1 1
   46       2    0 1 0 1 0 1 0 1 0 0 1 0 0 0 0 1 1 1 0 1 0 0 1 1 0 1 0 1 1 1 1 0 1 1 0 0 1 1 1 0 1 0 0 0 0 0 0 1 1 0 0
    1       0    0 1 0 1 1 1 0 1 0 1 1 0 1 1 1 0 1 1 0 0 1 0 0 1 1 1 0 0 0 0 0 0 1 0 0 0 1 1 0 0 0 1 1 1 0 0 0 1 0 0 0
    1       0    1 0 1 0 0 0 1 1 1 1 0 1 1 1 0 1 0 1 0 1 1 0 0 1 1
   47       2    0 1 0 1 0 1 0 1 0 0 1 0 0 0 1 1 1 0 1 0 1 0 1 0 0 1 0 0 1 0 1 0 1 1 0 0 1 1 1 0 1 0 0 0 0 0 1 1 1 0 0
    1       0    0 1 0 0 1 1 1 1 0 1 0 1 1 1 1 0 1 1 0 0 1 0 0 1 1 1 0 0 0 0 0 0 1 1 0 0 1 1 0 0 1 1 1 1 0 0 0 1 0 0 1
    1       0    1 0 1 0 0 0 1 1 1 0 1 1 1 0 0 1 1 0 0 1 1 0 0 1 1
   48       2    0 1 0 1 0 1 0 1 0 0 1 0 1 0 0 1 1 0 0 0 1 0 1 0 0 1 0 1 1 1 1 0 0 0 0 0 0 1 1 0 1 0 0 0 0 0 0 1 1 0 0
    1       0    0 1 0 1 1 1 0 1 0 1 1 1 0 1 1 0 1 1 0 0 1 0 0 1 1 1 0 0 0 0 0 0 1 0 0 0 1 1 1 0 0 1 1 1 0 0 0 1 0 0 1
    1       0    1 0 1 0 0 0 1 1 1 1 0 1 1 0 0 1 0 0 0 1 1 0 0 1 1
   49       2    0 1 0 1 0 1 0 1 0 0 1 0 1 0 0 1 1 0 0 0 1 0 1 0 0 1 0 1 1 1 1 0 0 1 0 0 0 1 1 0 1 0 0 0 0 0 0 1 1 0 0
    1       0    0 1 0 1 1 1 1 1 0 1 0 1 1 1 0 0 0 1 0 0 1 0 0 1 1 1 0 0 0 0 0 0 1 1 0 0 0 1 1 0 0 1 1 1 0 0 0 1 0 0 1
    1       0    1 0 1 0 0 0 1 1 1 0 0 1 1 0 0 1 1 0 0 1 1 0 0 1 1
   50       2    0 1 0 1 0 1 0 1 0 0 1 0 1 0 0 1 1 0 0 0 1 0 1 1 0 1 0 0 1 0 1 0 0 1 0 0 0 1 1 0 1 0 0 0 0 0 0 1 1 0 0
    1       0    0 1 0 1 1 0 0 1 0 1 0 1 1 1 1 0 1 1 0 0 1 0 1 1 1 1 0 0 0 0 0 0 1 1 0 0 1 0 0 0 0 1 1 1 0 0 0 1 0 0 1
    1       0    1 0 1 0 0 0 1 1 1 1 1 1 1 0 0 1 1 0 0 1 1 0 0 1 1
   51       2    0 1 0 1 0 0 0 1 0 0 1 0 1 0 1 1 1 1 0 0 1 0 1 0 0 1 0 1 1 0 1 0 1 1 0 0 1 1 1 0 1 0 0 0 0 0 0 1 1 0 0
    1       0    0 1 0 1 1 1 0 1 0 1 0 1 0 1 0 0 1 1 0 0 1 0 0 1 1 1 0 0 0 0 0 0 1 0 0 0 1 0 0 0 0 1 1 1 0 0 0 1 0 0 1
    1       0    1 0 1 0 0 0 1 1 1 1 0 1 1 0 0 1 1 0 0 1 1 0 0 1 1
   52       2    0 1 0 1 0 1 0 1 0 0 1 0 1 0 0 1 1 0 0 0 1 0 1 1 0 1 1 1 1 0 1 0 1 0 0 0 1 1 1 0 1 0 0 0 0 0 0 1 1 0 0
    1       0    0 1 0 1 1 1 0 1 0 1 0 1 1 1 0 0 0 0 0 0 1 0 1 1 1 1 0 0 0 0 0 0 1 1 0 0 1 0 0 0 1 1 1 1 0 0 0 1 0 0 1
    1       0    1 0 1 0 0 0 1 1 1 0 0 1 1 0 0 1 0 0 0 1 1 0 0 1 1
   53       2    0 1 0 1 0 1 0 1 0 0 1 0 1 0 0 1 1 0 0 0 1 0 1 1 0 1 0 0 1 1 1 0 0 1 0 0 0 1 1 0 1 0 0 0 0 0 0 1 1 0 0
    1       0    0 1 0 1 1 0 1 1 0 1 0 0 1 1 1 0 1 1 0 0 1 0 1 1 1 1 0 0 0 0 0 0 1 1 0 0 1 1 1 0 0 1 1 1 0 0 0 1 0 0 1
    1       0    1 0 1 0 0 0 1 1 1 0 0 1 1 0 0 1 1 0 0 1 1 0 0 1 1
   54       2    0 1 0 1 0 1 0 1 0 0 1 0 0 0 0 1 1 0 0 1 1 0 1 0 0 1 0 1 1 1 1 0 1 1 0 0 0 1 1 0 1 0 0 0 0 0 0 1 1 1 0
    1       0    0 1 0 0 1 1 0 1 0 1 0 1 1 0 0 0 1 1 0 0 1 0 1 1 1 1 0 0 0 0 0 0 1 1 0 0 1 1 1 0 0 1 1 0 0 0 0 1 0 0 1
    1       0    1 0 1 0 0 0 1 1 1 1 0 1 1 0 0 1 0 0 0 1 1 0 0 1 1
   8800000.00000000        1618033.00000000       0.000000000000000E+000
  1.136363636363636E-007   2895148.00000000        3852669.00000000     
           1          31           7
   8566675.00000000        6958419.00000000        4220525.00000000     
   7470643.00000000        431768.000000000        4241972.00000000     
   8315244.00000000        764218.000000000        2656727.00000000     
   5603133.00000000        224141.000000000        7581227.00000000     
   7679059.00000000        7858486.00000000        6997530.00000000     
   7403914.00000000        6494234.00000000        3178674.00000000     
   6725802.00000000        645500.000000000        6479509.00000000     
   6768462.00000000        3469885.00000000        6963852.00000000     
   1548539.00000000        4889479.00000000        2813861.00000000     
   8413449.00000000        3876946.00000000        499629.000000000     
   2895148.00000000        5504543.00000000        7070099.00000000     
   7310336.00000000        1736824.00000000        4941103.00000000     
   6518969.00000000        6296078.00000000        3817250.00000000     
   2775888.00000000        7573422.00000000        4126319.00000000     
   4037508.00000000        7358415.00000000        4927024.00000000     
   6353856.00000000        989548.000000000        4120787.00000000     
   8109159.00000000        5039328.00000000        3878318.00000000     
   1376208.00000000        5553965.00000000        450447.000000000     
   6511788.00000000     
   8800000.00000000        1618033.00000000       0.000000000000000E+000
  1.136363636363636E-007   6960640.00000000        8395837.00000000     
           1          25           1
   4106333.00000000        1022384.00000000        2037434.00000000     
   4118924.00000000        5964538.00000000        4193123.00000000     
   8211399.00000000        723539.000000000        629678.000000000     
   820803.000000000        4031221.00000000        5418862.00000000     
   4655211.00000000        2322661.00000000        3388322.00000000     
   2120119.00000000        4125074.00000000        1905541.00000000     
   3722980.00000000        3947735.00000000        7783153.00000000     
   3965905.00000000        4729291.00000000        5616305.00000000     
   6960640.00000000        3242556.00000000        6255675.00000000     
   270397.000000000        3462889.00000000        2173724.00000000     
   4971285.00000000        2904114.00000000        1666644.00000000     
   8427157.00000000        8631743.00000000        3630769.00000000     
   7213155.00000000        2374939.00000000        290356.000000000     
   1613302.00000000        7635486.00000000        6020768.00000000     
   8774039.00000000        8510688.00000000        1887559.00000000     
   5700940.00000000        1078714.00000000        1497655.00000000     
   4137822.00000000        7887353.00000000        528099.000000000     
   6751295.00000000        1807916.00000000        3378856.00000000     
   8492420.00000000     
   8800000.00000000        1618033.00000000       0.000000000000000E+000
  1.136363636363636E-007   3107688.00000000        7073189.00000000     
           1          31           7
   1529260.00000000        7499809.00000000        7874005.00000000     
   4448708.00000000        1119133.00000000        5836607.00000000     
   5549039.00000000        2737308.00000000        3441387.00000000     
   7232713.00000000        5839601.00000000        7485447.00000000     
   5909159.00000000        6415981.00000000        7004255.00000000     
   874564.000000000        3620154.00000000        1950844.00000000     
   4394292.00000000        3960425.00000000        2974294.00000000     
   2656607.00000000        7371115.00000000        5294177.00000000     
   5503019.00000000        1947019.00000000        4387666.00000000     
   8017514.00000000        5454291.00000000        3850209.00000000     
   3107688.00000000        8484208.00000000        6126189.00000000     
   8323726.00000000        464429.000000000        6066773.00000000     
   5117454.00000000        232073.000000000        7415940.00000000     
   1893038.00000000        4405162.00000000        1748919.00000000     
   3412218.00000000        8797205.00000000        956124.000000000     
   1504916.00000000        1371943.00000000        7983462.00000000     
   109949.000000000        1157998.00000000        1318708.00000000     
   3728688.00000000        5612275.00000000        3039687.00000000     
   6385058.00000000     
