          50          54   1.00000000000000     
    1       2    0 1 0 1 0 1 0 1 0 0 1 0 1 1 1 0 1 1 0 0 1 0 1 0 0 0 0 1 0 0 1 0 1 0 0 0 1 1 1 1 0 0 0 0 0 0 0 0 1 1 1
    1       0    1 0 1 1 0 0 0 0 0 1 1 0 0 0 0 0 1 1 0 0 0 1 0 0 1 1 0 0 0 0 0 0 1 0 1 1 0 0 0 0 0 1 1 1 1 1 1 0 0 1 1
    1       1    0 0 1 1 0 1 0 0 1 0 0 0 1 1 1 1 0 0 0 1 1 0 0 1 1
    2       2    0 1 0 1 0 1 0 1 0 0 1 0 1 1 1 0 1 1 0 0 1 0 1 0 0 0 0 1 0 1 1 0 1 1 0 1 0 1 1 0 1 0 0 1 0 0 0 0 1 1 1
    1       0    1 0 1 0 1 1 1 0 0 1 1 0 0 0 0 0 1 1 0 0 0 0 0 0 1 1 0 0 0 0 0 0 1 1 1 1 0 0 1 0 0 1 1 1 1 1 0 1 0 1 1
    1       1    0 1 1 1 0 1 0 0 1 1 0 0 1 1 1 1 0 0 0 1 1 0 0 1 1
    3       2    0 1 0 1 0 1 0 1 0 0 1 0 1 1 1 0 0 1 0 0 1 0 1 0 0 0 0 1 0 1 1 0 1 0 0 1 1 1 1 0 1 0 0 1 0 0 0 0 1 1 1
    1       0    1 0 1 0 1 1 1 0 0 1 1 0 0 0 0 0 1 1 0 0 0 0 0 0 1 1 0 0 0 0 0 0 1 1 1 1 0 0 1 0 0 1 1 1 1 1 0 1 0 1 1
    1       1    0 1 1 1 0 1 0 0 1 0 0 0 1 1 1 1 0 0 0 1 1 0 0 1 1
    4       2    0 1 0 1 0 1 0 1 0 0 1 0 1 1 1 0 1 1 0 0 1 0 1 0 0 0 0 1 0 1 1 0 1 0 0 1 1 1 1 0 1 0 0 1 0 0 0 0 1 1 1
    1       0    1 0 1 0 1 1 1 0 0 1 1 0 0 1 0 0 1 1 0 0 0 0 0 0 1 1 0 0 0 0 0 0 1 1 1 1 0 0 1 0 0 1 1 1 1 1 0 1 0 1 1
    1       1    0 1 1 1 0 1 0 0 1 0 0 0 1 1 1 1 0 0 0 1 1 0 0 1 1
    5       2    0 1 0 1 0 1 0 1 0 0 1 0 1 1 1 0 1 1 0 0 1 0 1 0 0 0 0 1 0 1 1 0 1 1 0 1 0 1 1 0 1 0 0 1 0 0 0 0 1 1 1
    1       0    1 0 1 0 1 1 1 0 0 1 1 0 0 0 0 0 1 1 0 0 0 1 0 0 1 1 0 0 0 0 0 0 1 1 1 1 0 0 1 0 0 1 1 1 1 1 0 1 0 1 1
    1       1    0 1 1 1 0 1 0 0 1 1 0 0 1 1 1 1 0 0 0 1 1 0 0 1 1
    6       2    0 1 0 1 0 1 0 1 0 0 1 0 1 1 1 0 1 1 0 0 1 0 1 0 0 0 0 1 0 1 1 0 1 0 0 1 1 1 1 0 1 0 0 1 0 0 0 0 1 1 1
    1       0    1 0 1 1 1 1 1 0 0 1 1 0 0 0 0 0 1 1 0 0 0 0 0 0 1 1 0 0 0 0 0 0 1 1 1 1 0 0 1 0 0 1 1 1 1 1 0 1 0 1 1
    1       1    0 1 1 1 0 1 0 0 1 0 0 0 1 1 1 1 0 0 0 1 1 0 0 1 1
    7       2    0 1 0 1 0 1 0 1 0 0 1 0 1 1 1 0 1 1 0 0 1 0 1 0 0 0 0 1 0 1 1 0 1 0 0 1 1 1 1 0 1 0 0 1 0 0 0 0 1 1 1
    1       0    1 0 1 1 1 1 1 0 0 1 1 0 0 0 0 0 1 1 0 0 0 0 0 0 1 1 0 0 0 0 0 0 1 1 1 1 0 0 1 0 0 1 1 1 1 1 0 1 0 1 1
    1       1    0 1 1 1 0 1 0 0 1 0 0 0 1 1 1 1 0 0 0 1 1 0 0 1 1
    8       2    0 1 0 1 0 1 0 1 0 0 1 0 1 1 1 0 1 1 0 0 1 0 1 0 0 0 0 1 0 1 1 0 1 0 0 1 1 1 1 0 1 0 0 1 0 0 0 0 1 1 1
    1       0    1 0 1 1 1 1 1 0 0 1 1 0 0 0 0 0 1 1 0 0 0 0 0 0 1 1 0 0 0 0 0 0 1 1 1 1 0 0 1 0 0 1 1 1 1 1 0 1 0 1 1
    1       1    0 1 1 1 0 1 0 0 1 0 0 0 1 1 1 1 0 0 0 1 1 0 0 1 1
    9       2    0 1 0 1 0 1 0 1 0 0 1 0 1 1 1 0 1 1 0 0 1 0 1 0 0 0 0 1 0 1 1 0 1 0 0 1 1 1 1 0 1 0 0 1 0 0 0 0 1 1 1
    1       0    1 0 1 1 1 1 1 0 0 1 1 0 0 0 0 0 1 1 0 0 0 0 0 0 1 1 0 0 0 0 0 0 1 1 1 1 0 0 1 0 0 1 1 1 1 1 0 1 0 1 1
    1       1    0 1 1 1 0 1 0 0 1 0 0 0 1 1 1 1 0 0 0 1 1 0 0 1 1
   10       2    0 1 0 1 0 1 0 1 0 0 1 0 1 1 1 0 1 1 0 0 1 0 1 0 0 0 0 1 0 1 1 0 1 0 0 1 1 1 1 0 1 0 0 1 0 0 0 0 1 1 1
    1       0    1 0 1 1 1 1 1 0 0 1 1 0 0 0 0 0 1 1 0 0 0 0 0 0 1 1 0 0 0 0 0 0 1 1 1 1 0 0 1 0 0 1 1 1 1 1 0 1 0 1 1
    1       1    0 1 1 1 0 1 0 0 1 0 0 0 1 1 1 1 0 0 0 1 1 0 0 1 1
   11       2    0 1 0 1 0 1 0 1 0 0 1 0 1 1 1 0 1 1 0 0 1 0 1 0 0 0 0 1 0 1 1 0 1 0 0 1 1 1 1 0 1 0 0 1 0 0 0 0 1 1 1
    1       0    1 0 1 1 1 1 1 0 0 1 1 0 0 0 0 0 1 1 0 0 0 0 0 0 1 1 0 0 0 0 0 0 1 1 1 1 0 0 1 0 0 1 1 1 1 1 0 1 0 1 1
    1       1    0 1 1 1 0 1 0 0 1 0 0 0 1 1 1 1 0 0 0 1 1 0 0 1 1
   12       2    0 1 0 1 0 1 0 1 0 0 1 0 1 1 1 0 1 1 0 0 1 0 1 0 0 0 0 1 0 1 1 0 1 0 0 1 1 1 1 0 1 0 0 1 0 0 0 0 1 1 1
    1       0    1 0 1 1 1 1 1 0 0 1 1 0 0 0 0 0 1 1 0 0 0 0 0 0 1 1 0 0 0 0 0 0 1 1 1 1 0 0 1 0 0 1 1 1 1 1 0 1 0 1 1
    1       1    0 1 1 1 0 1 0 0 1 0 0 0 1 1 1 1 0 0 0 1 1 0 0 1 1
   13       2    0 1 0 1 0 1 0 1 0 0 1 0 1 1 1 0 1 1 0 0 1 0 1 0 0 0 0 1 0 1 1 0 1 0 0 1 1 1 1 0 1 0 0 1 0 0 0 0 1 1 1
    1       0    1 0 1 1 1 1 1 0 0 1 1 0 0 0 0 0 1 1 0 0 0 0 0 0 1 1 0 0 0 0 0 0 1 1 1 1 0 0 1 0 0 1 1 1 1 1 0 1 0 1 1
    1       1    0 1 1 1 0 1 0 0 1 0 0 0 1 1 1 1 0 0 0 1 1 0 0 1 1
   14       2    0 1 0 1 0 1 0 1 0 0 1 0 1 1 1 0 1 1 0 0 1 0 1 0 0 0 0 1 0 1 1 0 1 0 0 1 1 1 1 0 1 0 0 1 0 0 0 0 1 1 1
    1       0    1 0 1 1 1 1 1 0 0 1 1 0 0 0 0 0 1 1 0 0 0 0 0 0 1 1 0 0 0 0 0 0 1 1 1 1 0 0 1 0 0 1 1 1 1 1 0 1 0 1 1
    1       1    0 1 1 1 0 1 0 0 1 0 0 0 1 1 1 1 0 0 0 1 1 0 0 1 1
   15       2    0 1 0 1 0 1 0 1 0 0 1 0 1 1 1 0 1 1 0 0 1 0 1 0 0 0 0 1 0 1 1 0 1 0 0 1 1 1 1 0 1 0 0 1 0 0 0 0 1 1 1
    1       0    1 0 1 1 1 1 1 0 0 1 1 0 0 0 0 0 1 1 0 0 0 0 0 0 1 1 0 0 0 0 0 0 1 1 1 1 0 0 1 0 0 1 1 1 1 1 0 1 0 1 1
    1       1    0 1 1 1 0 1 0 0 1 0 0 0 1 1 1 1 0 0 0 1 1 0 0 1 1
   16       2    0 1 0 1 0 1 0 1 0 0 1 0 1 1 1 0 1 1 0 0 1 0 1 0 0 0 0 1 0 1 1 0 1 0 0 1 1 1 1 0 1 0 0 1 0 0 0 0 1 1 1
    1       0    1 0 1 1 1 1 1 0 0 1 1 0 0 1 0 0 1 1 0 0 0 0 0 0 1 1 0 0 0 0 0 0 1 1 1 1 0 0 1 0 0 1 1 1 1 1 0 1 0 1 1
    1       1    0 1 1 1 0 1 0 0 1 0 0 0 1 1 1 1 0 0 0 1 1 0 0 1 1
   17       2    0 1 0 1 0 1 0 1 0 0 1 0 1 1 1 0 1 1 0 0 1 0 1 0 0 0 0 1 0 1 1 0 1 0 0 1 0 1 1 0 1 0 0 1 0 0 0 0 1 1 1
    1       0    1 0 1 1 1 1 1 0 0 1 1 0 0 0 0 0 1 1 0 0 0 0 0 0 1 1 0 0 0 0 0 0 1 1 1 1 0 0 1 0 0 1 1 1 1 1 0 1 0 1 1
    1       1    0 1 1 1 0 1 0 0 1 0 0 0 1 1 1 1 0 0 0 1 1 0 0 1 1
   18       2    0 1 0 1 0 1 0 1 0 0 1 0 1 1 1 0 1 1 0 0 1 0 1 0 0 0 0 1 0 1 1 0 1 0 0 1 1 1 1 0 1 0 0 1 0 0 0 0 1 1 1
    1       0    1 0 1 1 1 1 1 0 0 1 1 0 0 0 0 0 1 1 0 0 0 0 0 0 1 1 0 0 0 0 0 0 1 1 1 1 0 0 1 0 0 1 1 1 1 1 0 1 0 1 1
    1       1    0 1 1 1 0 1 0 0 1 0 0 0 1 1 1 1 0 0 0 1 1 0 0 1 1
   19       2    0 1 0 1 0 1 0 1 0 0 1 0 1 1 1 0 1 1 0 0 1 0 1 0 0 0 0 1 0 1 1 0 1 0 0 1 1 1 1 0 1 0 0 1 0 0 0 0 1 1 1
    1       0    1 0 1 1 1 1 1 0 0 1 1 0 0 0 0 0 1 1 0 0 0 0 0 0 1 1 0 0 0 0 0 0 1 1 1 1 0 0 1 0 0 1 1 1 1 1 0 1 0 1 1
    1       1    0 1 1 1 0 1 0 0 1 0 0 1 1 1 1 1 0 0 0 1 1 0 0 1 1
   20       2    0 1 0 1 0 1 0 1 0 0 1 0 1 1 1 0 1 1 0 0 0 0 1 0 0 0 0 1 0 1 1 1 1 0 0 1 0 1 1 0 1 0 0 1 0 0 0 0 1 1 1
    1       0    1 0 1 1 1 1 1 0 0 1 1 0 0 0 0 0 1 1 0 0 0 0 0 0 1 1 0 0 0 0 0 0 1 1 1 1 0 0 1 0 0 1 1 1 1 1 0 1 0 1 1
    1       1    0 1 1 1 0 1 0 0 1 0 0 0 1 1 1 1 0 0 0 1 1 0 0 1 1
   21       2    0 1 0 1 0 1 0 1 0 0 1 0 1 1 1 0 1 1 0 0 1 0 1 0 0 0 0 1 0 1 1 0 1 0 0 1 1 1 1 0 1 0 0 1 0 0 0 0 1 1 1
    1       0    1 0 1 1 1 1 1 0 0 1 1 0 0 0 0 0 1 1 0 0 0 0 0 0 1 1 0 0 0 0 0 0 1 1 1 1 0 0 1 0 0 1 1 1 1 1 0 1 0 1 1
    1       1    0 1 1 1 0 1 0 0 1 0 0 0 1 1 1 1 0 0 0 1 1 0 0 1 1
   22       2    0 1 0 1 0 1 0 1 0 0 1 0 1 1 1 0 1 1 0 0 1 0 1 0 0 0 0 1 0 1 1 0 1 0 0 1 1 1 1 0 1 0 0 1 0 0 0 0 1 1 1
    1       0    1 0 1 1 1 1 1 0 0 1 1 0 0 0 0 0 1 1 0 0 0 0 0 0 1 1 0 0 0 0 0 0 1 1 1 1 0 0 1 0 0 1 1 1 1 1 0 1 0 1 1
    1       1    0 1 1 1 0 1 0 0 1 0 0 0 1 1 1 1 0 0 0 1 1 0 0 1 1
   23       2    0 1 0 1 0 1 0 1 0 0 1 0 1 1 1 0 1 1 0 0 1 0 1 0 0 0 0 1 0 1 1 0 1 0 0 1 0 1 1 0 1 0 0 1 0 0 0 0 1 1 1
    1       0    1 0 1 1 1 1 1 0 0 1 1 0 0 0 0 0 1 1 0 0 0 0 0 0 1 1 0 0 0 0 0 0 1 1 1 1 0 0 1 0 0 1 1 1 1 1 0 1 0 1 1
    1       1    0 1 1 1 0 1 0 0 1 0 0 0 1 1 1 1 0 0 0 1 1 0 0 1 1
   24       2    0 1 0 1 0 1 0 1 0 0 1 0 1 1 1 0 1 1 0 0 1 0 1 0 0 0 0 1 0 1 1 0 1 0 0 1 1 1 1 0 1 0 0 1 0 0 0 0 1 1 1
    1       0    1 0 1 1 1 1 1 0 0 1 1 0 0 0 0 0 1 1 0 0 0 0 0 0 1 1 0 0 0 0 0 0 1 1 1 1 0 0 1 0 0 1 1 1 1 1 0 1 0 1 1
    1       1    0 1 1 1 0 1 0 0 1 0 0 0 1 1 1 1 0 0 0 1 1 0 0 1 1
   25       2    0 1 0 1 0 1 0 1 0 0 1 0 1 1 1 0 1 1 0 0 1 0 1 0 0 0 0 1 0 1 1 0 1 0 0 1 1 1 1 0 1 0 0 1 0 0 0 0 1 1 1
    1       0    1 0 1 1 1 1 0 0 0 1 1 0 0 0 0 0 1 1 0 0 0 0 0 0 1 1 0 0 0 0 0 0 1 1 1 1 0 0 1 0 0 1 1 1 1 1 0 1 0 1 1
    1       1    0 1 1 1 0 1 0 0 1 0 0 0 1 1 1 1 0 0 0 1 1 0 0 1 1
   26       2    0 1 0 1 0 1 0 1 0 0 1 0 1 1 1 0 1 1 0 0 1 0 1 0 0 0 0 1 0 1 1 0 1 1 0 1 1 1 1 0 1 0 0 1 0 0 0 0 1 1 1
    1       0    1 0 1 1 1 1 1 0 0 1 1 0 0 0 0 0 1 1 1 0 0 0 0 0 1 1 0 0 0 0 0 0 1 1 1 1 0 0 1 1 0 1 1 1 1 1 0 1 0 1 1
    1       1    0 1 1 1 0 1 0 0 1 0 0 1 1 1 1 1 0 0 0 1 1 0 0 1 1
   27       2    0 1 0 1 0 1 0 1 0 0 1 0 0 1 1 0 1 0 0 0 1 0 1 0 0 0 0 1 0 1 1 0 1 0 0 1 1 1 1 0 1 0 0 1 0 0 0 0 1 1 1
    1       0    1 0 1 1 1 1 1 0 0 1 1 0 0 0 0 0 1 1 0 0 0 0 0 0 1 1 0 0 0 0 0 0 1 1 1 1 0 0 1 0 0 1 1 1 1 1 0 1 0 1 1
    1       1    0 1 1 1 0 1 0 0 1 0 0 0 1 1 1 1 0 0 0 1 1 0 0 1 1
   28       2    0 1 0 1 0 1 0 1 0 0 1 0 1 1 1 0 1 1 0 0 1 0 1 0 0 0 0 0 0 1 1 0 1 0 0 1 1 1 1 0 1 0 0 1 0 0 0 0 1 1 1
    1       0    1 0 1 1 1 1 1 0 0 1 1 0 0 0 0 0 1 1 0 0 0 0 0 0 1 1 0 0 0 0 0 0 1 1 1 0 0 0 1 0 0 1 1 1 1 1 0 1 0 1 1
    1       1    0 1 1 1 0 1 0 0 1 0 0 0 1 1 1 1 0 0 0 1 1 0 0 1 1
   29       2    0 1 0 1 0 1 0 1 0 0 1 0 1 1 1 0 0 1 0 0 1 0 1 0 0 0 0 1 0 1 1 0 0 0 0 1 1 1 1 0 1 0 0 1 0 0 0 0 1 1 1
    1       0    1 0 1 1 1 1 1 0 0 1 1 0 0 0 0 0 1 1 0 0 0 0 0 0 1 1 0 0 0 0 0 0 1 1 1 1 0 0 1 0 0 1 1 1 1 1 0 1 0 1 1
    1       1    0 1 1 1 0 1 0 0 1 0 0 0 1 1 1 1 0 0 0 1 1 0 0 1 1
   30       2    0 1 0 1 0 1 0 1 0 0 1 0 0 1 1 0 1 1 0 0 1 0 1 0 0 0 0 1 0 1 1 0 1 0 0 1 1 1 1 0 1 0 0 1 0 0 0 0 1 1 1
    1       0    1 0 1 1 1 1 1 0 0 1 1 0 0 0 0 0 1 1 0 0 0 0 0 0 1 1 0 0 0 0 0 0 1 1 1 1 0 0 1 1 0 1 1 1 1 1 0 1 0 1 1
    1       1    0 1 1 1 0 1 0 0 1 0 0 1 1 1 1 1 0 0 0 1 1 0 0 1 1
   31       2    0 1 0 1 0 1 0 1 0 0 1 0 1 1 1 0 1 1 0 0 1 0 1 0 0 0 0 1 0 1 1 0 1 0 0 1 1 1 1 0 1 0 0 1 0 0 0 0 1 1 1
    1       0    1 0 1 1 1 1 1 0 0 1 1 0 0 0 0 0 1 1 0 0 0 0 0 0 1 1 0 0 0 0 0 0 1 1 1 1 0 0 1 0 0 1 1 1 1 1 0 1 0 1 1
    1       1    0 1 1 1 0 1 0 0 1 0 0 0 1 1 1 1 0 0 0 1 1 0 0 1 1
   32       2    0 1 0 1 0 1 0 1 0 0 1 0 1 1 1 0 1 1 0 0 1 0 1 0 0 0 0 1 0 1 1 0 1 0 0 1 1 1 1 0 1 0 0 1 0 0 0 0 1 1 1
    1       0    1 0 1 1 1 1 1 0 0 1 1 0 0 0 0 0 1 1 0 1 0 0 0 0 1 1 0 0 0 0 0 0 1 1 1 1 0 0 1 0 0 1 1 1 1 1 0 1 0 1 1
    1       1    0 1 1 1 0 1 0 0 1 0 0 0 1 1 1 1 0 0 0 1 1 0 0 1 1
   33       2    0 1 0 1 0 1 0 1 0 0 1 0 1 1 1 0 1 1 0 0 1 0 1 0 0 0 0 1 0 1 1 0 1 0 0 1 1 1 1 0 1 0 0 1 0 0 0 0 1 1 1
    1       0    1 0 1 1 1 1 1 0 0 1 1 0 0 1 0 0 1 1 0 0 0 0 0 0 1 1 0 0 0 0 0 0 1 1 1 1 0 0 1 0 0 1 1 1 1 1 0 1 0 1 1
    1       1    0 1 1 1 0 1 0 0 1 0 0 0 1 1 1 1 0 0 0 1 1 0 0 1 1
   34       2    0 1 0 1 0 1 0 1 0 0 1 0 1 1 1 0 1 1 0 0 1 1 1 0 0 0 1 1 0 0 1 0 0 0 0 1 1 1 1 0 1 0 0 0 0 0 0 0 1 1 1
    1       0    1 1 1 1 1 1 1 0 0 1 1 0 0 1 0 0 1 1 0 0 0 0 0 0 1 1 0 0 0 0 0 0 1 0 1 1 0 0 0 0 0 1 1 1 1 1 0 1 1 1 1
    1       1    0 1 1 1 0 1 0 0 1 0 0 0 1 1 1 0 0 0 0 1 1 0 0 1 1
   35       2    0 1 0 1 0 1 0 1 0 0 1 0 1 1 1 0 1 1 0 0 1 1 1 0 0 0 1 1 0 0 1 0 0 0 0 1 1 1 1 0 1 0 0 0 0 0 0 0 1 1 1
    1       0    1 1 1 1 1 1 1 0 0 1 1 0 0 1 0 0 1 1 0 0 0 0 0 0 1 1 0 0 0 0 0 0 1 0 1 1 0 0 0 0 0 1 1 1 1 1 0 1 1 1 1
    1       1    0 1 1 1 0 1 0 0 1 0 0 0 1 1 1 0 0 0 0 1 1 0 0 1 1
   36       2    0 1 0 1 0 1 0 1 0 0 1 0 1 1 1 0 1 1 0 0 1 1 1 0 0 0 1 1 0 0 1 0 0 0 0 1 1 1 1 0 1 0 0 0 0 0 0 0 1 1 1
    1       0    1 1 1 1 1 1 1 0 0 1 1 0 0 1 0 0 1 1 0 0 0 0 0 0 1 1 0 0 0 0 0 0 1 0 1 1 0 0 0 0 0 1 1 1 1 1 0 1 1 1 1
    1       1    0 1 1 1 0 1 0 0 1 0 0 0 1 1 1 0 0 0 0 1 1 0 0 1 1
   37       2    0 1 0 1 0 1 0 1 0 0 1 0 1 1 1 0 1 1 0 0 1 1 1 0 0 0 1 1 0 0 1 0 0 0 0 1 1 1 1 0 1 0 0 0 0 0 0 0 1 1 1
    1       0    1 1 1 1 1 1 1 0 0 1 1 0 0 1 0 0 1 1 0 0 0 0 0 0 1 1 0 0 0 0 0 0 1 0 1 1 0 0 0 0 0 1 1 1 1 1 0 1 1 1 1
    1       1    0 1 1 1 0 1 0 0 1 0 1 0 1 1 1 0 0 0 0 1 1 0 0 1 1
   38       2    0 1 0 1 0 1 0 1 0 0 1 0 1 1 1 0 1 1 0 0 1 1 1 0 0 0 1 1 0 0 1 0 0 0 0 1 1 1 1 0 1 0 0 0 0 0 0 0 1 1 1
    1       0    1 1 1 1 1 1 1 0 0 1 1 0 0 0 0 0 1 1 0 0 0 0 0 0 1 1 0 0 0 0 0 0 1 1 1 1 0 0 0 0 0 1 1 1 1 1 0 1 1 1 1
    1       1    0 1 1 1 0 1 0 0 1 0 0 0 1 1 1 0 0 0 0 1 1 0 0 1 1
   39       2    0 1 0 1 0 1 0 1 0 0 1 0 1 1 0 0 1 1 0 0 1 1 1 0 0 0 1 1 0 1 1 0 1 0 0 1 1 1 1 1 0 0 1 1 0 0 0 0 1 1 1
    1       0    1 0 0 1 0 1 0 0 0 0 0 0 0 0 0 0 1 1 0 0 0 0 0 0 1 1 0 0 0 0 0 0 0 0 1 1 0 1 1 0 1 1 1 1 1 1 1 1 1 1 1
    1       1    0 0 0 1 0 1 0 0 1 0 1 0 0 1 1 0 1 0 0 1 1 0 0 1 1
   40       2    0 1 0 1 0 1 0 1 0 0 1 0 1 1 1 0 1 0 0 1 0 1 0 0 1 0 1 1 0 1 1 0 1 0 0 1 1 1 1 1 0 1 1 0 0 0 0 0 1 1 1
    1       0    1 0 0 1 0 0 0 0 0 0 0 0 0 0 0 0 1 1 0 0 0 0 0 1 1 1 0 0 0 0 0 0 1 0 1 1 0 0 1 0 0 1 1 1 1 1 0 0 1 1 1
    1       1    0 0 0 1 0 1 0 0 0 1 0 0 1 1 1 1 0 1 0 1 1 0 0 1 1
   41       2    0 1 0 1 0 0 0 1 0 0 1 0 1 1 1 0 1 0 0 1 1 1 1 0 1 0 1 0 0 0 1 0 0 0 0 1 1 1 1 1 0 1 1 0 0 0 0 0 1 1 1
    1       0    1 0 0 1 1 0 0 0 0 1 0 0 0 0 0 0 1 1 0 0 0 0 0 0 1 1 0 0 0 0 0 0 0 0 1 1 0 0 0 0 0 1 1 1 1 1 0 0 1 1 1
    1       1    0 0 0 1 0 1 0 0 0 0 0 0 1 1 1 1 0 0 0 1 1 0 0 1 1
   42       2    0 1 0 1 0 1 0 1 0 0 1 0 1 1 1 0 1 0 0 1 1 1 0 0 0 0 1 1 0 0 1 0 1 0 0 1 1 1 1 1 0 1 1 0 0 0 0 0 1 1 1
    1       0    1 0 0 1 0 0 0 0 0 1 0 0 0 0 0 0 1 1 1 0 0 0 0 1 1 1 0 0 0 0 0 0 0 0 1 1 0 0 1 0 0 1 1 1 1 1 0 0 1 1 1
    1       1    0 0 0 1 0 1 0 0 1 0 0 0 1 1 1 1 0 0 0 1 1 0 0 1 1
   43       2    0 1 0 1 0 1 0 1 0 0 1 0 1 1 1 0 1 0 0 1 1 0 0 0 1 0 1 1 0 1 1 0 1 0 0 1 1 1 1 1 0 1 1 0 0 0 0 0 1 1 1
    1       0    1 0 0 1 0 0 0 0 0 1 0 0 0 0 0 0 1 0 0 0 0 0 1 1 1 1 0 0 0 0 0 0 1 0 1 1 0 0 1 0 0 1 1 1 1 1 0 0 1 1 1
    1       1    0 0 0 1 0 1 0 0 1 0 0 0 1 1 1 1 0 0 0 1 1 0 0 1 1
   44       2    0 1 0 1 0 1 0 1 0 0 1 0 1 1 1 0 1 1 0 1 0 1 0 0 1 0 1 1 0 0 1 0 1 0 0 1 1 1 1 1 0 1 1 0 0 0 0 0 1 1 1
    1       0    1 0 0 1 0 0 0 0 0 1 0 0 0 0 0 0 1 1 1 0 0 0 0 0 1 1 0 0 0 0 0 0 1 0 1 1 0 0 0 0 0 1 1 1 1 1 0 0 1 1 1
    1       1    0 0 0 1 0 1 0 0 0 0 0 0 1 1 1 0 0 0 0 1 1 0 0 1 1
   45       2    0 1 0 1 0 1 0 1 0 0 1 0 1 1 1 0 1 0 0 1 1 1 1 0 1 0 1 1 0 0 1 0 1 0 0 1 1 1 1 1 0 1 1 0 0 0 0 0 1 1 1
    1       0    1 0 0 1 1 0 0 0 0 1 0 0 0 0 0 0 1 1 0 0 0 0 0 0 1 1 0 0 0 0 0 0 0 0 1 1 0 0 1 0 0 1 1 1 1 1 0 0 1 1 1
    1       1    0 0 0 1 0 1 0 0 1 0 0 0 1 1 1 0 0 0 0 1 1 0 0 1 1
   46       2    0 1 0 1 0 1 0 1 0 0 1 0 1 1 1 0 1 0 0 1 1 1 0 0 1 0 1 1 0 1 1 0 1 0 0 1 1 1 1 1 0 1 1 0 0 0 0 0 1 1 1
    1       0    1 0 0 1 0 0 0 0 0 0 0 0 0 0 0 0 1 1 0 0 0 0 0 1 1 1 0 0 0 0 0 0 1 0 1 1 0 0 1 0 0 1 1 1 1 1 0 0 1 1 1
    1       1    0 0 0 1 0 1 0 0 0 1 0 0 1 1 1 1 0 0 0 1 1 0 0 1 1
   47       2    0 1 0 1 0 1 0 1 0 0 1 0 1 1 1 0 1 0 0 1 0 0 1 0 1 0 1 1 0 1 1 0 1 0 0 1 1 1 1 1 0 1 1 0 0 0 0 0 1 1 1
    1       0    1 0 0 1 0 0 0 0 0 0 0 0 0 0 0 0 1 1 0 0 0 0 0 0 1 1 0 0 0 0 0 0 0 0 1 1 0 0 1 0 0 1 1 1 1 1 0 0 1 1 1
    1       1    0 0 0 1 0 1 0 0 1 1 0 0 1 1 1 0 0 1 0 1 1 0 0 1 1
   48       2    0 1 0 1 0 1 0 1 0 0 1 0 1 0 1 0 1 1 0 0 1 1 0 0 1 0 1 1 0 1 1 0 1 0 0 1 1 1 1 1 0 1 1 0 0 0 0 0 1 1 1
    1       0    1 1 0 1 0 0 0 0 0 0 0 0 0 0 0 0 1 1 0 0 0 0 0 0 1 1 0 0 0 0 0 0 1 0 1 1 0 0 0 0 0 1 1 1 1 1 0 0 0 1 1
    1       1    0 0 0 1 0 1 0 0 0 0 0 0 1 0 1 1 0 0 0 1 1 0 0 1 1
   49       2    0 1 0 1 0 1 0 1 0 0 1 0 1 1 0 0 1 1 0 0 1 1 1 0 1 0 1 1 0 0 1 1 1 0 0 1 1 1 1 1 0 1 1 0 0 0 0 0 1 1 1
    1       0    1 1 0 1 0 0 0 0 0 1 1 0 0 0 0 0 1 0 0 0 0 0 0 0 1 1 0 0 0 0 0 0 0 0 0 1 1 0 1 0 1 1 1 1 1 1 0 0 0 1 1
    1       1    0 0 0 1 0 1 0 0 0 0 0 0 1 1 1 1 1 0 0 1 1 0 0 1 1
   50       2    0 1 0 1 0 1 0 1 0 0 0 0 1 1 0 0 1 1 0 0 0 0 0 0 1 0 0 1 0 1 1 1 1 0 0 0 1 1 1 1 0 1 0 0 0 0 0 0 1 1 1
    1       0    1 0 0 1 0 0 0 0 0 1 0 0 0 0 0 0 1 1 0 0 0 0 0 0 1 1 0 0 0 0 0 0 1 1 1 1 1 1 0 0 1 1 1 1 1 1 1 0 0 1 1
    1       1    0 0 0 1 0 1 0 0 0 1 0 0 1 1 1 1 0 1 0 1 1 0 0 1 1
   51       2    0 1 0 1 0 1 0 1 0 0 1 0 1 1 1 0 1 1 0 0 1 0 1 0 0 0 0 1 0 1 1 0 1 0 0 1 1 1 1 0 1 0 0 1 0 0 1 0 1 1 1
    1       0    1 0 1 1 1 1 1 0 0 1 1 0 0 0 0 0 1 1 0 0 0 0 0 0 1 1 0 0 0 0 0 0 1 1 1 1 0 0 1 0 0 1 1 1 1 1 0 1 0 1 1
    1       1    0 1 1 1 0 1 0 0 1 0 0 0 1 1 0 1 0 0 0 1 1 0 0 1 1
   52       2    0 1 0 1 0 1 0 1 0 0 1 0 1 1 1 0 1 1 0 0 1 0 1 0 0 0 0 1 0 1 1 0 1 0 0 1 1 1 1 0 1 0 0 1 0 0 1 0 1 1 1
    1       0    1 0 1 1 1 1 1 0 0 1 1 0 0 0 0 0 1 1 0 0 0 0 0 0 1 1 0 0 0 0 0 0 1 1 1 1 0 0 1 0 0 1 1 1 1 1 0 1 0 1 1
    1       1    0 1 1 1 0 1 0 0 1 0 0 0 1 1 1 1 0 0 0 1 1 0 0 1 1
   53       2    0 1 0 1 0 1 0 1 0 0 1 0 1 1 1 0 1 1 0 0 1 0 1 0 0 0 0 1 0 1 1 0 1 0 0 1 1 1 1 0 1 0 0 1 0 0 1 0 1 1 1
    1       0    1 0 1 1 1 1 0 0 0 1 1 0 0 0 0 0 1 1 0 0 0 0 0 0 1 1 0 0 0 0 0 0 1 1 1 1 0 0 1 0 0 1 1 1 1 1 0 1 0 1 1
    1       1    0 1 1 1 0 1 0 0 1 0 0 0 1 1 0 1 0 0 0 1 1 0 0 1 1
   54       2    0 1 0 1 0 1 0 1 0 0 1 0 1 1 1 0 1 1 0 0 1 0 1 0 0 0 0 1 0 1 1 0 0 0 0 1 1 1 1 0 1 0 0 1 0 0 1 0 1 1 1
    1       0    1 1 1 1 1 1 1 0 0 1 1 0 0 0 0 0 1 1 0 0 0 0 0 0 1 1 0 0 0 0 0 0 1 1 1 1 0 0 1 0 0 1 1 1 1 1 0 1 0 1 1
    1       1    0 1 1 1 0 0 0 0 1 0 0 0 1 1 0 1 0 0 0 1 1 0 0 1 1
   8800000.00000000        1618033.00000000       0.000000000000000E+000
  1.136363636363636E-007   7346135.00000000        3852669.00000000     
           1          16          47
   5321470.00000000        2271512.00000000        6841921.00000000     
   2177342.00000000        6670447.00000000        450186.000000000     
   8470528.00000000        4605274.00000000        3959361.00000000     
   972701.000000000        8198159.00000000        6489258.00000000     
   2866344.00000000        1307914.00000000        2316483.00000000     
   7346135.00000000        764930.000000000        712912.000000000     
   4494681.00000000        5933294.00000000        8197743.00000000     
   3116096.00000000        5584492.00000000        2042223.00000000     
   8591190.00000000        349510.000000000        7320563.00000000     
   1377612.00000000        1026245.00000000        1960783.00000000     
   2522556.00000000        3441395.00000000        4635660.00000000     
   4284496.00000000        1944008.00000000        4994662.00000000     
   4359130.00000000        5672931.00000000        5017001.00000000     
   8477977.00000000        5416382.00000000        5676180.00000000     
   8600617.00000000        4967782.00000000        3179862.00000000     
   6872974.00000000        5092573.00000000        8440905.00000000     
   8142874.00000000        4246500.00000000        2543655.00000000     
   8548275.00000000        5950280.00000000        1037807.00000000     
   2985837.00000000     
   8800000.00000000        1618033.00000000       0.000000000000000E+000
  1.136363636363636E-007   6029055.00000000        8395837.00000000     
           1          16          47
   1267510.00000000        7102312.00000000        4269729.00000000     
   2323862.00000000        6999247.00000000        4193282.00000000     
   963920.000000000        8106002.00000000        4894329.00000000     
   1399957.00000000        8344743.00000000        7548994.00000000     
   4875816.00000000        5352202.00000000        5836787.00000000     
   6029055.00000000        7752986.00000000        7166016.00000000     
   3501073.00000000        461038.000000000        6438215.00000000     
   8668912.00000000        4612940.00000000        5104199.00000000     
   2142646.00000000        2457182.00000000        6155875.00000000     
   3003052.00000000        7663821.00000000        5492975.00000000     
   4550812.00000000        7411115.00000000        4279220.00000000     
   7744752.00000000        264240.000000000        1963422.00000000     
   766418.000000000        4205915.00000000        3450425.00000000     
   5293673.00000000        2882790.00000000        10940.0000000000     
   7244161.00000000        3358150.00000000        5286646.00000000     
   3107238.00000000        6546053.00000000        1172633.00000000     
   3004738.00000000        4426300.00000000        1512919.00000000     
   3156619.00000000        3381752.00000000        1079615.00000000     
   7619237.00000000     
   8800000.00000000        1618033.00000000       0.000000000000000E+000
  1.136363636363636E-007   5481810.00000000        7073189.00000000     
           1          16          47
   7192695.00000000        1677262.00000000        2559541.00000000     
   3873267.00000000        4114947.00000000        4168251.00000000     
   8527158.00000000        2114819.00000000        8172506.00000000     
   6763166.00000000        4974044.00000000        5034423.00000000     
   8550424.00000000        340234.000000000        2871293.00000000     
   5481810.00000000        2504895.00000000        834722.000000000     
   6793186.00000000        8333454.00000000        924948.000000000     
   4740586.00000000        4801712.00000000        2335988.00000000     
   7991530.00000000        3259715.00000000        7563493.00000000     
   3011712.00000000        2460260.00000000        5743163.00000000     
   1324896.00000000        2697820.00000000        370935.000000000     
   791836.000000000        3546363.00000000        7126687.00000000     
   502075.000000000        2507316.00000000        1101111.00000000     
   7913167.00000000        2772377.00000000        3329455.00000000     
   1915902.00000000        4683802.00000000        7393122.00000000     
   5894059.00000000        3296648.00000000        7868575.00000000     
   646709.000000000        5021625.00000000        4442865.00000000     
   8185560.00000000        7370610.00000000        1496677.00000000     
   7127462.00000000     
