          54          54   1.00000000000000     
    1       2    0 1 0 0 1 0 0 1 0 1 0 0 0 1 0 0 1 1 1 1 1 1 0 0 0 1 1 1 1 0 0 1 0 0 1 0 0 1 0 0 1 1 0 0 0 0 0 1 1 0 1
    0       1    0 0 0 0 0 0 1 0 0 1 0 0 0 1 0 0 1 1 0 0 1 1 0 0 1 1 0 0 0 0 0 0 0 0 0 0 1 1 0 0 0 1 1 1 1 0 0 1 1 1 0
    1       1    0 0 0 1 1 0 0 0 0 1 0 0 1 1 0 1 0 0 0 1 1 0 0 1 1
    2       2    0 1 0 0 1 0 0 1 0 1 0 1 0 1 0 0 0 1 1 1 0 0 0 0 0 1 1 1 1 0 1 1 0 1 0 0 0 1 0 0 1 1 0 0 0 0 0 1 1 0 1
    0       1    0 0 1 0 0 0 1 1 0 1 0 0 0 1 0 0 1 0 0 0 0 1 0 0 1 1 0 0 0 0 0 1 1 0 0 0 1 1 0 0 0 1 1 1 1 0 0 1 1 0 0
    1       1    0 0 0 1 1 0 0 0 0 1 0 0 0 1 0 0 0 0 0 1 1 0 0 1 1
    3       2    0 1 0 0 1 0 0 1 0 1 0 0 0 1 0 0 1 1 0 1 1 0 0 1 0 0 1 0 1 0 1 1 0 0 0 0 0 1 0 0 1 1 0 0 0 0 0 1 1 0 1
    0       1    0 0 1 0 1 0 0 1 0 1 0 0 0 1 0 0 0 0 0 0 1 1 0 0 1 1 0 0 0 0 0 1 0 0 0 0 1 1 0 0 0 1 1 1 1 0 0 1 1 0 0
    1       1    0 0 0 1 1 0 0 0 0 1 0 0 1 1 0 0 1 0 0 1 1 0 0 1 1
    4       2    0 1 0 0 1 0 0 1 0 1 0 0 0 1 0 0 1 1 0 1 0 1 1 0 0 1 1 1 1 0 1 1 0 0 1 0 0 1 0 0 1 1 0 0 0 0 0 1 1 0 1
    0       1    0 0 1 0 0 0 1 0 0 0 1 1 0 0 0 1 1 0 0 0 1 1 0 0 1 1 0 0 0 0 0 1 1 0 0 1 1 1 0 0 0 1 1 1 1 0 0 1 1 0 0
    1       1    0 0 0 1 1 0 0 0 0 0 0 0 1 1 0 0 1 0 0 1 1 0 0 1 1
    5       2    0 1 0 0 1 0 0 1 0 1 0 0 0 1 0 0 0 1 0 1 0 0 0 0 0 1 1 1 1 0 1 1 1 0 0 0 0 1 0 0 1 1 0 0 0 0 0 1 1 0 1
    0       1    0 0 1 0 0 0 1 1 0 0 1 1 0 0 0 0 0 0 0 0 1 1 0 0 1 1 0 0 0 0 0 1 1 0 0 0 1 1 0 0 0 1 1 1 1 0 0 1 1 0 0
    1       1    0 0 0 1 1 0 0 0 0 1 0 0 0 1 0 0 1 0 0 1 1 0 0 1 1
    6       2    0 1 0 0 1 0 0 1 0 1 0 0 0 1 0 0 1 1 1 1 1 0 0 0 0 1 1 1 1 0 1 1 0 0 0 0 0 1 0 0 1 1 0 0 0 0 0 1 1 0 1
    0       1    0 0 1 0 0 0 1 1 0 1 0 0 0 1 0 0 1 0 0 0 1 1 0 0 1 1 0 0 0 0 0 1 1 0 0 0 1 1 0 0 0 1 1 1 1 0 0 1 1 0 0
    1       1    0 0 0 1 1 0 0 0 0 1 0 0 1 1 0 0 0 0 0 1 1 0 0 1 1
    7       2    0 1 0 0 1 0 0 1 0 1 0 0 0 1 0 0 1 1 0 1 1 0 0 0 0 1 1 1 1 0 1 1 0 0 1 0 0 1 0 0 1 1 0 0 0 0 0 1 1 0 1
    0       1    0 0 1 0 0 0 1 0 0 0 1 1 0 1 0 0 1 0 0 0 1 1 0 0 1 1 0 0 0 0 0 1 1 0 0 0 1 1 0 0 0 1 1 1 1 0 0 1 1 0 0
    1       1    0 0 0 1 1 0 0 0 0 0 0 0 1 1 0 0 1 0 0 1 1 0 0 1 1
    8       2    0 1 0 0 1 0 0 1 0 1 0 0 0 1 0 0 1 1 1 1 0 0 0 0 0 1 1 1 1 0 1 1 0 0 0 0 0 1 0 0 1 1 0 0 0 0 0 1 1 0 1
    0       1    0 0 1 0 0 0 1 0 0 0 0 1 0 0 0 1 1 1 0 0 1 1 0 0 1 1 0 0 0 0 0 0 1 0 1 1 1 1 0 0 0 1 1 1 1 0 0 1 1 0 0
    1       1    0 0 0 1 1 0 0 0 0 0 0 0 1 1 0 0 0 0 0 1 1 0 0 1 1
    9       2    0 1 0 0 1 0 0 1 0 1 0 1 1 1 0 0 1 1 1 1 0 0 1 0 0 1 0 0 1 0 0 0 1 1 0 1 0 1 0 0 1 1 0 0 1 0 0 1 1 0 1
    0       1    0 0 0 0 0 1 0 0 0 1 1 1 0 0 0 0 1 0 0 0 1 1 1 0 1 1 0 0 0 0 0 0 1 1 1 0 1 1 1 0 1 1 1 1 1 0 0 1 1 1 0
    1       1    0 0 0 1 0 1 0 0 0 1 0 1 1 1 1 0 1 0 0 1 1 0 0 1 1
   10       2    0 1 0 0 1 0 0 1 0 1 0 0 1 1 0 0 1 1 1 1 0 0 1 0 0 1 0 0 1 0 0 1 0 1 0 0 0 1 0 0 1 1 0 0 1 0 0 1 1 0 1
    0       1    0 0 0 0 0 0 0 0 0 1 1 0 0 0 0 0 1 0 0 0 1 1 1 0 1 1 0 0 0 0 0 0 1 0 1 0 1 1 0 0 1 1 1 1 1 0 0 1 1 1 0
    1       1    0 0 0 1 0 1 0 0 0 1 0 1 1 1 1 1 1 0 0 1 1 0 0 1 1
   11       2    0 1 0 0 1 0 0 1 0 1 0 0 1 1 0 0 1 1 1 1 1 0 0 0 0 1 1 0 1 1 0 0 0 0 0 0 0 1 0 0 1 1 0 0 1 0 0 1 1 0 1
    0       1    0 0 0 0 0 0 0 0 0 0 0 0 0 1 0 0 1 1 0 0 1 1 0 0 1 1 0 0 0 0 0 1 1 0 0 0 1 1 0 0 1 1 1 1 1 0 0 1 0 1 0
    1       1    0 0 0 1 1 0 0 0 0 1 0 0 1 1 1 0 1 0 0 1 1 0 0 1 1
   12       2    0 1 0 0 1 0 0 1 0 1 0 0 1 1 0 0 1 1 1 1 0 0 0 0 0 1 0 0 1 0 1 1 0 0 0 0 0 1 0 0 1 1 0 0 1 0 0 1 1 0 1
    0       1    0 0 0 0 0 0 1 0 1 1 0 1 0 1 0 0 1 1 0 0 1 1 0 0 1 1 0 0 0 0 0 0 1 0 0 0 1 1 1 0 0 1 1 1 1 0 0 1 0 1 0
    1       1    0 0 0 1 1 0 0 0 0 0 0 0 0 1 0 0 0 0 0 1 1 0 0 1 1
   13       2    0 1 0 0 1 0 0 1 0 1 0 0 1 0 0 0 1 1 1 1 1 1 1 0 0 1 1 1 0 0 0 1 0 0 1 0 0 1 0 0 1 1 0 0 0 0 0 1 1 0 1
    0       1    0 1 0 0 0 0 1 0 0 0 1 0 0 0 0 0 1 1 0 0 1 1 0 0 1 1 0 0 0 0 0 0 0 0 0 0 1 1 0 0 0 1 1 1 1 0 0 0 1 1 0
    1       1    0 0 0 1 1 1 0 0 0 1 0 1 1 0 1 1 1 0 0 1 1 0 0 1 1
   14       2    0 1 0 0 1 0 0 1 0 1 0 0 1 1 0 0 1 1 1 1 0 0 0 0 0 1 1 1 1 0 1 1 0 0 0 0 0 1 0 0 1 1 0 0 1 0 0 1 1 0 1
    0       1    0 0 0 0 0 0 1 0 1 1 1 1 0 1 0 0 1 1 0 0 1 1 0 0 1 1 0 0 0 0 0 1 1 0 0 0 1 1 1 0 0 1 1 1 1 0 0 1 0 0 0
    1       1    0 0 0 1 1 0 1 0 0 1 0 0 0 0 0 0 1 0 0 1 1 0 0 1 1
   15       2    0 1 0 0 1 0 0 1 0 1 0 0 1 1 0 0 1 0 0 1 0 1 0 0 0 1 1 0 0 0 1 1 0 0 0 1 0 1 0 0 1 1 0 0 1 1 0 1 1 0 1
    0       1    0 0 0 0 0 1 0 1 0 1 1 0 0 1 0 0 1 1 0 0 1 1 0 0 1 1 0 0 0 0 0 1 1 0 0 0 1 1 1 0 1 1 1 1 1 0 0 1 0 0 0
    1       1    0 0 0 1 1 0 0 0 0 0 0 0 1 1 0 0 0 0 0 1 1 0 0 1 1
   16       2    0 1 0 0 1 0 0 1 0 1 0 0 1 1 0 0 1 0 0 1 0 1 0 0 0 1 1 0 0 0 1 1 0 0 0 1 0 1 0 0 1 1 0 0 1 1 0 1 1 0 1
    0       1    0 0 0 0 0 1 0 1 0 1 1 0 0 1 0 0 1 1 0 0 1 1 0 0 1 1 0 0 0 0 0 1 1 0 0 0 1 1 1 0 1 1 1 1 1 0 0 1 0 0 0
    1       1    0 0 0 1 1 0 0 0 0 0 0 0 1 1 0 0 0 0 0 1 1 0 0 1 1
   17       2    0 1 0 0 1 0 0 1 0 1 0 0 1 1 0 0 1 0 0 1 0 1 0 0 0 1 1 0 0 0 1 1 0 0 0 1 0 1 0 0 1 1 0 0 1 1 0 1 1 0 1
    0       1    0 0 0 0 0 1 0 1 0 1 1 0 0 1 0 0 1 1 0 0 1 1 0 0 1 1 0 0 0 0 0 1 1 0 0 0 1 1 1 0 1 1 1 1 1 0 0 1 0 0 0
    1       1    0 0 0 1 1 0 0 0 0 0 0 0 1 1 0 0 0 0 0 1 1 0 0 1 1
   18       2    0 1 0 0 1 0 0 1 0 1 0 0 1 1 0 0 1 1 1 1 1 1 1 0 0 1 1 1 1 0 0 1 0 0 1 0 0 1 0 0 1 1 0 0 1 0 0 1 1 0 1
    0       1    0 0 0 0 1 0 1 0 0 0 1 0 0 0 0 0 1 1 0 0 0 0 0 0 1 1 0 0 0 0 0 1 0 0 0 0 1 1 0 0 0 1 1 1 1 0 0 0 1 1 0
    1       1    0 0 0 1 1 1 0 0 0 1 0 1 1 1 1 1 0 0 0 1 1 0 0 1 1
   19       2    0 1 0 0 1 0 0 1 0 1 0 0 1 0 0 0 1 1 1 1 0 0 0 0 0 1 1 0 1 0 1 1 0 0 0 0 0 1 0 0 1 1 0 0 1 0 0 1 1 0 1
    0       1    0 0 0 0 1 1 1 0 0 0 1 0 0 0 0 0 1 1 1 0 1 1 0 0 1 1 0 0 0 0 0 0 1 0 0 0 1 1 0 0 0 1 1 1 1 0 0 0 1 1 0
    1       1    0 0 0 1 1 1 0 0 0 1 0 0 1 0 1 0 1 0 0 1 1 0 0 1 1
   20       2    0 1 0 0 1 0 0 1 0 1 0 0 1 1 0 0 1 1 1 1 0 1 0 0 0 1 1 1 1 0 0 1 0 0 1 0 0 1 0 0 1 1 0 0 1 0 0 1 1 0 1
    0       1    0 0 0 0 1 0 1 0 0 0 1 0 0 1 0 0 1 1 0 0 0 0 0 0 1 1 0 0 0 0 0 1 0 0 0 0 1 0 0 0 0 1 1 1 1 0 0 0 1 1 0
    1       1    0 0 0 1 1 1 0 0 0 1 0 1 1 1 1 1 0 0 0 1 1 0 0 1 1
   21       2    0 1 0 0 1 0 0 1 0 1 0 0 1 1 0 0 1 1 1 1 1 1 0 0 0 1 1 1 1 0 0 1 0 0 1 0 0 1 0 0 1 1 0 0 1 0 0 1 1 0 1
    0       1    0 0 0 0 1 0 1 1 0 1 1 0 0 0 0 0 1 1 0 0 0 0 0 0 1 1 0 0 0 0 0 1 1 0 0 0 1 1 1 0 0 1 1 1 1 0 0 0 1 1 0
    1       1    0 0 0 1 1 1 0 0 0 1 0 1 1 1 1 1 0 0 0 1 1 0 0 1 1
   22       2    0 1 0 0 1 0 0 1 0 1 0 0 0 1 0 0 1 1 1 1 1 1 0 0 0 1 1 1 1 0 1 1 0 0 1 0 0 1 0 0 1 1 0 0 1 0 0 1 1 0 1
    0       1    0 0 0 0 0 0 1 1 0 1 1 0 0 0 0 0 1 1 1 0 0 1 0 0 1 1 0 0 0 0 0 0 1 0 0 0 1 1 1 0 0 1 1 1 1 0 0 0 1 1 0
    1       1    0 0 0 1 1 1 0 0 0 1 0 0 1 1 1 1 0 0 0 1 1 0 0 1 1
   23       2    0 1 0 0 1 0 0 1 0 1 0 0 1 0 0 0 1 1 1 1 1 0 0 0 0 0 1 1 1 0 1 1 1 1 1 0 0 1 0 0 1 1 0 0 1 0 0 1 1 0 1
    0       1    0 0 0 0 0 0 0 0 0 1 0 1 0 0 0 0 1 1 0 0 1 1 0 0 1 1 0 0 0 0 0 0 0 0 0 0 1 1 1 0 1 1 1 1 1 0 0 0 1 1 0
    1       1    0 0 0 1 1 1 0 0 0 1 0 0 1 1 0 0 1 0 0 1 1 0 0 1 1
   24       2    0 1 0 0 1 0 0 1 0 1 0 0 1 0 0 0 1 1 1 1 1 1 0 0 0 1 1 0 1 0 0 1 0 0 1 0 0 1 0 0 1 1 0 0 1 0 0 1 1 0 1
    0       1    0 0 0 0 1 1 1 0 0 0 1 0 0 0 0 0 1 1 0 0 1 1 0 0 1 1 0 0 0 0 0 1 1 0 0 0 1 1 0 0 0 1 1 1 1 0 0 0 1 1 0
    1       1    0 0 0 1 1 1 0 0 0 1 0 0 1 1 1 1 0 0 0 1 1 0 0 1 1
   25       2    0 1 0 0 1 0 0 1 0 1 0 0 1 1 0 0 1 1 1 1 1 1 1 0 0 1 1 0 1 0 0 1 0 1 1 0 0 1 0 0 1 1 0 0 1 0 0 1 1 0 1
    0       1    0 0 0 0 1 0 0 0 0 1 1 0 0 1 0 0 1 1 0 0 0 1 0 0 1 1 0 0 0 0 0 0 0 0 0 0 1 1 1 0 0 1 1 1 1 0 0 0 1 1 0
    1       1    0 0 0 1 1 1 0 0 0 1 1 1 0 1 1 1 0 0 0 1 1 0 0 1 1
   26       2    0 1 0 0 1 0 0 1 0 1 0 1 1 1 0 0 1 1 1 1 0 0 0 0 0 1 1 1 1 0 1 1 1 1 1 0 0 1 0 0 1 1 0 0 1 0 0 1 1 0 1
    0       1    0 0 0 0 0 0 0 0 0 1 0 0 0 0 0 0 1 0 0 0 1 1 0 0 1 1 0 0 0 0 0 0 0 0 0 0 1 1 0 1 0 1 1 1 1 0 0 0 1 1 0
    1       1    0 0 0 1 1 1 0 0 0 1 0 0 1 1 0 0 0 0 0 1 1 0 0 1 1
   27       2    0 1 0 0 1 0 0 1 0 1 0 0 1 1 0 0 1 1 1 1 1 0 0 0 0 1 0 0 1 0 0 1 0 0 1 0 0 1 0 0 1 1 0 0 1 0 0 1 1 0 1
    0       1    0 0 0 0 0 0 1 1 1 1 1 0 0 1 0 0 1 0 0 0 1 0 0 0 1 1 0 0 0 0 0 0 1 0 0 0 1 1 1 0 0 1 1 1 1 0 0 0 1 1 0
    1       1    0 0 0 1 1 1 0 0 0 0 0 1 0 1 0 0 0 0 0 1 1 0 0 1 1
   28       2    0 1 0 0 1 0 0 1 0 1 0 0 0 1 0 0 1 1 0 1 0 1 0 0 0 1 1 1 1 0 1 1 0 0 1 0 0 1 0 0 1 1 0 0 1 0 0 1 1 0 1
    0       1    0 0 0 0 1 0 1 1 0 0 1 0 0 1 0 0 0 1 0 0 0 0 0 0 1 1 0 0 0 0 0 1 1 0 0 0 1 1 0 0 0 1 1 1 1 0 0 0 1 1 0
    1       1    0 0 0 1 1 1 0 0 0 1 0 1 1 1 0 1 0 0 0 1 1 0 0 1 1
   29       2    0 1 0 0 1 0 0 1 0 1 0 0 0 0 0 0 1 1 1 1 1 0 1 0 0 1 0 0 1 0 1 1 0 0 0 0 0 1 0 0 1 1 0 0 1 0 0 1 1 0 1
    0       1    0 0 0 0 0 0 0 1 1 1 0 1 0 1 0 1 1 1 0 0 1 0 0 0 1 1 0 0 0 0 0 0 1 0 0 0 1 1 1 0 0 1 1 1 1 0 0 0 1 1 0
    1       1    0 0 0 1 1 1 0 0 0 0 0 1 1 1 0 0 0 0 0 1 1 0 0 1 1
   30       2    0 1 0 0 1 0 0 1 0 1 0 0 1 1 0 0 1 1 1 1 1 1 0 0 0 1 1 1 1 0 1 1 0 0 0 0 0 1 0 0 1 1 0 0 1 0 0 1 1 0 1
    0       1    0 0 0 0 1 0 1 1 0 1 1 0 0 0 0 0 1 1 1 0 0 1 0 0 1 1 0 0 0 0 0 1 1 0 0 0 1 1 1 0 0 1 1 1 1 0 0 0 1 0 0
    1       1    0 0 0 1 1 1 1 0 0 1 0 1 1 1 0 1 0 0 0 1 1 0 0 1 1
   31       2    0 1 0 0 1 0 0 1 0 1 0 0 1 0 1 0 1 1 1 1 1 0 0 0 0 1 1 1 1 0 1 1 1 0 1 0 0 1 0 0 1 1 0 0 1 0 0 1 1 0 1
    0       1    0 0 0 0 1 0 0 1 0 0 1 0 0 1 0 0 1 1 1 0 0 1 0 0 1 1 0 0 0 0 0 1 1 0 0 0 1 1 1 1 1 1 1 1 1 0 0 0 1 0 0
    1       1    0 0 0 1 1 1 1 0 0 1 0 1 1 1 0 1 0 0 0 1 1 0 0 1 1
   32       2    0 1 0 0 1 0 0 1 0 1 0 0 1 1 0 0 1 1 1 1 1 1 0 0 0 1 1 1 1 0 1 1 0 0 0 0 0 1 0 0 1 1 0 0 1 0 0 1 1 0 1
    0       1    0 0 0 0 1 0 1 0 0 0 1 0 0 0 0 0 1 1 1 0 1 1 0 0 1 1 0 0 0 0 0 1 0 0 0 0 1 1 0 1 0 1 1 1 1 0 0 0 1 0 0
    1       1    0 0 0 1 1 1 1 0 0 1 0 1 1 1 0 1 0 0 0 1 1 0 0 1 1
   33       2    0 1 0 0 1 0 0 1 0 1 0 0 0 1 0 0 1 1 1 1 0 0 1 0 1 1 1 1 1 0 1 1 0 0 0 0 0 1 0 0 1 1 0 0 1 0 0 1 1 0 1
    0       1    0 0 0 0 0 0 0 0 0 1 1 0 0 0 0 0 1 0 0 1 0 0 0 0 1 1 0 0 0 0 0 1 1 0 0 0 1 1 0 0 0 1 1 1 1 0 0 0 1 0 0
    1       1    0 0 0 1 1 1 1 0 0 1 0 0 1 0 1 1 0 0 0 1 1 0 0 1 1
   34       2    0 1 0 0 1 0 0 1 0 1 0 0 0 0 0 0 1 1 1 1 1 0 1 0 0 1 1 1 1 0 1 1 0 0 0 0 0 1 0 0 1 1 0 0 1 0 0 1 1 0 1
    0       1    0 0 0 0 0 0 0 1 0 1 1 0 0 1 0 0 1 1 0 0 1 0 0 0 1 1 0 0 0 0 0 1 1 0 0 0 1 1 1 0 0 1 1 1 1 0 0 0 1 0 0
    1       1    0 0 0 1 1 1 1 0 0 1 0 1 1 0 0 0 1 0 0 1 1 0 0 1 1
   35       2    0 1 0 0 1 0 0 1 0 1 0 0 0 1 0 0 1 1 1 1 0 0 1 0 1 1 1 1 1 0 1 1 0 0 0 0 0 1 0 0 1 1 0 0 1 0 0 1 1 0 1
    0       1    0 0 0 0 0 0 0 0 0 1 1 0 0 0 0 0 1 1 0 1 0 0 0 0 1 1 0 0 0 0 0 1 1 0 0 0 1 1 0 0 0 1 1 1 1 0 0 0 1 0 0
    1       1    0 0 0 1 1 1 1 0 1 1 0 0 1 0 1 1 0 0 0 1 1 0 0 1 1
   36       2    0 1 0 0 1 0 0 1 0 1 0 1 0 1 0 0 1 1 1 1 0 0 1 0 1 1 1 1 1 0 1 0 1 0 0 1 0 1 0 0 1 1 0 0 1 0 0 1 1 0 1
    0       1    0 0 0 0 0 1 0 0 0 1 1 1 0 0 0 0 1 0 0 1 0 0 0 0 1 1 0 0 0 0 0 1 1 0 0 0 1 1 1 0 0 1 1 1 1 0 0 0 1 0 0
    1       1    0 0 0 1 1 1 1 0 0 1 0 0 1 0 1 0 0 0 0 1 1 0 0 1 1
   37       2    0 1 0 0 1 0 0 1 0 1 0 0 1 1 0 0 1 1 1 1 1 1 0 0 0 1 1 1 1 0 1 1 0 0 0 0 0 1 0 0 1 1 0 0 1 0 0 1 1 0 1
    0       1    0 0 0 0 1 0 1 1 0 1 1 0 0 0 0 0 1 1 1 0 0 1 0 0 1 1 0 0 0 0 0 1 1 0 0 0 1 1 1 0 0 1 1 1 1 0 0 0 1 0 0
    1       1    0 0 0 1 1 1 1 0 0 1 0 1 1 1 0 1 0 0 0 1 1 0 0 1 1
   38       2    0 1 0 0 1 0 0 1 0 1 0 0 1 1 0 0 1 1 1 1 1 1 1 0 0 1 1 1 1 0 1 1 0 0 0 0 0 1 0 0 1 1 0 0 1 0 0 1 1 0 1
    0       1    0 0 0 0 0 0 1 1 0 1 1 1 0 0 0 0 1 1 1 0 1 1 0 0 1 1 0 0 0 0 0 1 1 0 0 0 1 1 1 0 0 1 1 1 1 0 0 0 1 0 0
    1       1    0 0 0 1 1 1 1 0 0 1 0 0 1 1 0 0 1 0 0 1 1 0 0 1 1
   39       2    0 1 0 0 1 0 0 1 0 1 0 1 0 1 0 0 1 1 1 1 0 0 1 0 1 1 1 1 1 0 1 0 1 0 0 1 0 1 0 0 1 1 0 0 1 0 0 1 1 0 1
    0       1    0 0 0 0 0 1 0 0 0 1 1 1 0 0 0 0 1 0 0 1 0 0 0 0 1 1 0 0 0 0 0 1 1 0 0 0 1 1 1 0 0 1 1 1 1 0 0 0 1 0 0
    1       1    0 0 0 1 1 1 1 0 0 0 0 0 1 0 1 0 0 0 0 1 1 0 0 1 1
   40       2    0 1 0 0 1 0 0 1 0 1 0 0 1 1 0 0 1 1 1 1 1 1 0 0 0 1 1 1 1 0 1 1 1 0 0 0 0 1 0 0 1 1 0 0 1 0 0 1 1 0 1
    0       1    0 0 0 0 1 0 0 1 0 1 1 0 0 1 0 0 1 1 1 0 0 0 0 0 1 1 0 0 0 0 0 1 1 0 0 0 1 1 1 1 0 1 1 1 1 0 0 0 1 0 0
    1       1    0 0 0 1 1 1 1 0 0 1 0 1 1 1 0 1 0 0 0 1 1 0 0 1 1
   41       2    0 1 0 0 1 0 0 1 0 1 0 0 1 1 0 0 1 1 1 1 1 1 0 0 0 1 1 1 1 0 1 1 1 0 0 0 0 1 0 0 1 1 0 0 1 0 0 1 1 0 1
    0       1    0 0 0 0 1 0 0 0 0 1 1 0 0 0 0 0 1 1 1 0 0 1 0 0 1 1 0 0 0 0 0 1 1 0 0 0 1 1 1 1 0 1 1 1 1 0 0 0 1 0 0
    1       1    0 0 0 1 1 1 1 0 0 1 0 1 1 1 0 1 0 0 0 1 1 0 0 1 1
   42       2    0 1 0 0 1 0 0 1 0 1 0 1 0 1 0 0 1 1 1 1 0 0 0 0 1 0 1 0 1 0 1 0 0 0 0 0 0 1 0 0 1 1 0 0 1 1 0 1 1 0 1
    0       1    0 0 1 0 0 0 0 0 0 1 0 0 0 1 0 0 1 0 0 1 0 1 0 0 1 1 0 0 0 0 0 1 0 0 0 0 1 1 0 0 0 1 1 1 1 0 0 0 1 0 0
    1       1    0 0 0 1 1 0 1 0 0 1 0 0 1 1 1 0 0 0 0 1 1 0 0 1 1
   43       2    0 1 0 0 1 0 0 1 0 1 0 0 1 1 0 0 1 1 1 1 1 0 0 0 0 1 1 1 1 1 0 1 0 0 1 1 0 1 0 0 1 1 0 0 1 0 0 1 1 0 1
    0       1    0 1 0 0 0 1 0 0 1 0 0 0 0 0 0 0 1 1 0 0 1 1 0 0 1 1 0 0 0 0 0 1 1 0 0 0 1 1 0 0 0 1 1 1 1 0 0 0 0 1 0
    1       1    0 0 0 1 1 1 0 0 0 1 0 0 0 1 0 0 0 0 0 1 1 0 0 1 1
   44       2    0 1 0 0 1 0 0 1 0 1 0 0 1 1 0 0 1 1 0 1 1 1 0 0 0 1 1 1 1 0 0 1 0 0 0 1 0 1 0 0 1 1 0 0 1 0 0 1 1 0 1
    0       1    0 1 0 0 0 1 0 1 0 0 0 0 0 0 0 0 1 1 0 0 1 1 0 0 1 1 0 0 0 0 0 1 1 0 0 0 1 1 1 0 0 1 1 1 1 0 0 0 0 1 0
    1       1    0 0 0 1 1 1 0 0 0 1 0 0 0 1 0 0 0 0 0 1 1 0 0 1 1
   45       2    0 1 0 0 1 0 0 1 0 1 0 0 1 1 0 0 1 1 0 1 1 1 0 0 0 1 1 0 1 0 1 1 1 0 0 0 0 1 0 0 1 1 0 0 1 0 1 1 1 0 1
    0       1    0 0 0 0 0 1 1 0 1 0 1 1 1 0 0 0 1 1 0 0 1 1 0 0 1 1 0 0 0 0 0 1 1 0 1 0 1 1 1 0 1 1 1 1 1 0 1 1 0 1 0
    1       1    0 0 0 0 1 0 0 0 0 1 0 0 0 1 1 0 0 0 0 1 1 0 0 1 1
   46       2    0 1 0 0 1 0 0 1 0 1 0 0 0 1 0 0 0 1 1 1 0 0 0 0 0 1 1 1 1 1 1 1 0 1 0 0 0 1 0 0 1 1 0 0 0 0 1 1 1 0 1
    0       1    0 0 1 0 0 0 1 1 0 1 1 0 0 1 0 0 1 1 0 0 0 1 0 0 1 1 0 0 0 0 0 0 1 0 0 0 1 1 0 0 0 1 1 1 1 0 0 1 1 0 0
    1       1    0 0 0 1 1 0 0 0 0 1 0 0 1 1 0 0 0 0 0 1 1 0 0 1 1
   47       2    0 1 0 0 1 0 0 1 0 1 0 0 1 0 1 0 1 1 1 1 1 0 0 0 0 1 1 0 1 1 0 0 1 0 0 0 0 1 0 0 1 1 0 0 1 0 0 1 1 0 1
    0       1    0 0 0 0 0 0 0 0 0 1 1 0 0 1 0 0 1 1 0 0 1 1 1 0 1 1 0 0 0 0 0 0 1 0 0 0 1 1 0 0 0 1 1 1 1 0 0 1 0 1 1
    1       1    0 0 0 1 1 0 0 0 0 1 0 0 1 1 1 0 1 0 0 1 1 0 0 1 1
   48       2    0 1 0 0 1 0 0 1 0 1 0 0 1 0 0 0 1 1 1 1 1 0 0 0 0 1 1 0 1 1 1 0 1 0 0 0 0 1 0 0 1 1 0 0 1 0 0 1 1 0 1
    0       1    0 0 0 0 0 0 0 1 0 1 1 0 0 1 0 0 1 1 0 0 0 1 1 0 1 1 0 0 0 0 0 0 1 0 0 0 1 1 0 0 0 1 1 1 1 0 0 1 0 1 1
    1       1    0 0 0 1 1 0 0 0 0 1 0 0 1 1 0 0 0 0 0 1 1 0 0 1 1
   49       2    0 1 0 0 1 0 0 1 0 1 0 0 1 0 1 0 1 1 1 1 1 0 0 0 0 1 1 0 1 1 0 0 1 0 0 0 0 1 0 0 1 1 0 0 1 0 0 1 1 0 1
    0       1    0 0 0 0 0 0 0 1 0 1 1 0 0 1 1 0 1 1 0 0 1 1 1 1 1 1 0 0 0 0 0 0 1 0 0 0 1 1 0 0 0 1 1 1 1 0 0 1 0 1 1
    1       1    0 0 0 1 1 0 0 0 0 1 0 0 1 1 1 0 0 0 0 1 1 0 0 1 1
   50       2    0 1 0 0 1 0 0 1 0 1 0 1 0 1 0 0 1 1 1 1 0 0 1 0 0 1 1 1 1 0 1 1 1 1 0 1 0 1 0 0 1 1 0 0 1 0 0 1 1 0 1
    0       1    1 0 0 0 0 1 1 0 0 1 1 1 0 0 0 0 1 1 1 0 0 1 1 0 1 1 0 0 0 0 0 0 1 1 1 0 1 1 0 0 1 1 1 1 1 0 0 0 1 1 1
    1       1    0 0 0 1 0 1 0 0 0 1 0 1 0 0 1 0 1 0 0 1 1 0 0 1 1
   51       2    0 1 0 0 1 0 0 1 0 1 0 1 1 1 0 0 1 1 1 1 0 0 1 0 0 1 1 1 1 0 1 1 0 1 0 1 0 1 0 0 1 1 0 0 1 0 0 1 1 0 1
    0       1    1 0 0 0 1 1 1 0 0 0 1 1 0 0 0 0 1 1 1 0 0 1 1 0 1 1 0 0 0 0 0 0 1 1 1 0 1 1 0 0 0 1 1 1 1 0 0 0 1 1 1
    1       1    0 0 0 1 0 1 0 0 0 1 0 1 0 0 1 0 1 0 0 1 1 0 0 1 1
   52       2    0 1 0 0 1 0 0 1 0 1 0 0 0 1 0 0 1 1 1 1 0 0 0 0 0 1 1 1 1 1 1 1 0 0 1 0 0 1 0 0 1 1 0 0 1 0 1 1 1 0 1
    0       1    0 0 0 0 0 1 1 0 0 0 1 0 0 0 0 0 1 1 0 0 1 1 0 0 1 1 0 0 0 0 0 0 1 0 0 0 1 1 1 1 0 1 1 1 1 0 0 0 1 1 0
    1       1    0 0 0 1 1 1 0 0 0 1 0 0 1 0 1 1 0 0 0 1 1 0 0 1 1
   53       2    0 1 0 0 1 0 0 1 0 1 0 0 1 1 0 0 1 1 1 1 0 0 0 0 0 1 1 1 1 0 1 1 1 0 0 1 0 1 0 0 1 1 0 0 1 0 1 1 1 0 1
    0       1    0 0 0 0 0 0 1 1 0 1 1 0 0 0 0 0 1 1 0 1 0 1 1 0 1 1 0 0 0 0 0 0 1 0 0 0 1 1 0 0 0 1 1 1 1 0 0 0 1 1 0
    1       1    0 0 0 1 1 1 0 0 0 1 0 0 1 0 1 0 0 0 0 1 1 0 0 1 1
   54       2    0 1 0 0 1 0 0 1 0 1 0 0 1 1 0 0 1 1 1 1 0 1 1 0 0 1 1 1 1 0 1 1 0 0 0 0 0 1 0 0 0 1 0 0 1 0 0 1 1 0 1
    0       1    0 0 0 0 0 0 0 1 0 1 1 1 0 0 0 0 1 1 1 1 1 0 0 0 1 1 0 0 0 0 0 1 1 0 0 0 1 1 0 0 0 1 1 1 1 0 0 0 1 0 0
    1       1    0 1 0 1 1 1 1 0 0 1 0 0 1 0 1 1 0 0 0 1 1 0 0 1 1
   8800000.00000000        1618033.00000000       0.000000000000000E+000
  1.136363636363636E-007   3014628.00000000        2540149.00000000     
           1          47          23
   1862508.00000000        8331166.00000000        5747057.00000000     
   7208826.00000000        3210206.00000000        5156387.00000000     
   566161.000000000        5297683.00000000        5217191.00000000     
   3967490.00000000        5200872.00000000        8212056.00000000     
   4648832.00000000        87563.0000000000        7498182.00000000     
   4165766.00000000        6945393.00000000        1639980.00000000     
   1424373.00000000        3042191.00000000        1893418.00000000     
   2565579.00000000        6490346.00000000        4077743.00000000     
   5603532.00000000        890913.000000000        7773999.00000000     
   7415604.00000000        8573947.00000000        3843904.00000000     
   628039.000000000        849220.000000000        1044070.00000000     
   2302303.00000000        7210277.00000000        1359771.00000000     
   8039112.00000000        6718905.00000000        5237121.00000000     
   6826126.00000000        5397883.00000000        1463925.00000000     
   525556.000000000        4921349.00000000        5813615.00000000     
   6036481.00000000        3014628.00000000        1657478.00000000     
   2406037.00000000        4317946.00000000        7806062.00000000     
   1538691.00000000        4696712.00000000        3499516.00000000     
   6407713.00000000     
   8800000.00000000        1618033.00000000       0.000000000000000E+000
  1.136363636363636E-007   4875632.00000000        2129117.00000000     
           1          53          29
   4362504.00000000        5207196.00000000        3684139.00000000     
   3904099.00000000        7945406.00000000        6434301.00000000     
   5960036.00000000        4337932.00000000        7296957.00000000     
   3247859.00000000        2835064.00000000        7814117.00000000     
   2675710.00000000        2040170.00000000        5647647.00000000     
   5797165.00000000        7467831.00000000        1678886.00000000     
   1360352.00000000        2919838.00000000        1022643.00000000     
   5078754.00000000        2966582.00000000        2708236.00000000     
   871729.000000000        3183852.00000000        7295996.00000000     
   2008693.00000000        5540984.00000000        394917.000000000     
   8003554.00000000        6754429.00000000        3082001.00000000     
   2845294.00000000        3463558.00000000        1555745.00000000     
   3300660.00000000        7636882.00000000        6574989.00000000     
   4826023.00000000        4059761.00000000        8337572.00000000     
   7250438.00000000        7569316.00000000        3926931.00000000     
   4264987.00000000        5485230.00000000        8183744.00000000     
   5612526.00000000        3677363.00000000        4626545.00000000     
   8299574.00000000        4875632.00000000        3424569.00000000     
   1978247.00000000     
   8800000.00000000        1618033.00000000       0.000000000000000E+000
  1.136363636363636E-007   5066691.00000000        8322469.00000000     
           1          53          29
   3549989.00000000        1683247.00000000        332835.000000000     
   1771463.00000000        8511191.00000000        2718567.00000000     
   4142418.00000000        664515.000000000        5157380.00000000     
   7523427.00000000        7680080.00000000        5050246.00000000     
   8635411.00000000        2765576.00000000        2169216.00000000     
   2457609.00000000        2395918.00000000        1862234.00000000     
   2490360.00000000        1128092.00000000        3631326.00000000     
   8371593.00000000        7339995.00000000        3035618.00000000     
   6151146.00000000        3264867.00000000        8791501.00000000     
   815402.000000000        3285577.00000000        3732790.00000000     
   8285902.00000000        1958099.00000000        7330872.00000000     
   5861582.00000000        3742595.00000000        373355.000000000     
   1409463.00000000        1652662.00000000        2515846.00000000     
   3499357.00000000        2650617.00000000        8362993.00000000     
   6996723.00000000        6406715.00000000        4493486.00000000     
   1621654.00000000        8045502.00000000        1986938.00000000     
   6221541.00000000        599145.000000000        4214408.00000000     
   3437365.00000000        5066691.00000000        6510201.00000000     
   8316766.00000000     
