          77          54   1.00000000000000     
    1       2    0 1 0 0 1 0 0 1 0 0 0 0 1 0 1 0 1 1 1 1 0 0 1 0 0 1 0 1 1 0 0 1 0 0 0 1 0 1 0 0 1 1 0 0 1 0 0 1 1 0 1
    0       1    0 0 0 0 0 0 1 1 0 1 1 1 0 0 0 0 1 0 1 0 1 1 1 0 1 1 0 0 0 0 0 0 1 0 0 0 1 1 0 0 0 1 1 1 1 0 0 0 1 0 1
    1       1    0 0 0 1 0 0 0 0 0 1 0 0 1 1 0 0 0 0 0 1 1 0 0 1 1
    2       2    0 1 0 0 1 0 0 1 0 0 0 0 1 1 1 0 0 1 1 1 0 1 1 1 0 1 0 1 1 0 1 1 0 0 0 0 0 1 0 0 1 1 0 0 1 0 0 1 1 0 1
    0       1    0 0 0 1 0 0 1 1 0 1 1 0 0 0 0 0 0 0 0 0 1 1 0 0 1 1 0 0 0 0 0 1 1 0 0 0 1 1 0 0 0 1 1 1 1 0 0 0 1 0 0
    1       1    0 0 0 1 0 0 0 0 0 1 0 0 1 1 0 0 1 1 0 1 1 0 0 1 1
    3       2    0 1 0 0 1 0 0 1 0 0 0 0 1 1 1 0 0 1 1 1 0 0 1 1 0 0 0 1 1 0 1 1 0 0 0 0 0 1 0 0 1 1 0 0 1 0 0 1 1 0 1
    0       1    0 0 0 1 0 0 1 1 0 1 1 0 0 0 0 0 1 0 0 0 1 1 0 0 1 1 0 0 0 0 0 1 1 0 0 0 1 1 0 0 0 1 1 1 1 0 0 0 1 0 0
    1       1    0 0 0 1 0 0 0 0 0 1 0 1 1 1 0 0 1 1 0 1 1 0 0 1 1
    4       2    0 1 0 0 1 0 0 1 0 0 0 0 1 1 1 0 0 1 1 1 0 0 1 1 0 1 0 1 1 0 1 1 0 0 0 0 0 1 0 0 1 1 0 0 1 0 0 1 1 0 1
    0       1    0 0 0 1 0 0 1 1 0 1 1 0 0 0 0 0 1 0 0 0 1 1 0 0 1 1 0 0 0 0 0 1 1 1 0 0 1 1 0 0 0 1 1 1 1 0 0 0 1 0 0
    1       1    0 0 0 1 0 0 0 0 0 1 0 0 1 1 0 0 1 1 0 1 1 0 0 1 1
    5       2    0 1 0 0 1 0 0 1 0 0 0 0 1 0 1 0 0 1 1 1 0 0 0 0 0 1 0 1 1 0 1 1 0 0 0 0 0 1 0 0 1 1 0 0 1 0 0 1 1 0 1
    0       1    0 0 0 1 0 0 1 1 0 1 1 1 0 0 0 0 1 0 0 0 1 1 0 0 1 1 0 0 0 0 0 1 1 1 0 0 1 1 0 0 0 1 1 1 1 0 0 0 1 0 0
    1       1    0 0 0 1 0 0 0 0 0 1 0 1 1 1 0 0 1 1 0 1 1 0 0 1 1
    6       2    0 1 0 0 1 0 0 1 0 0 0 0 0 1 1 0 1 1 1 1 0 0 1 1 0 1 0 1 1 0 0 1 0 1 1 0 0 1 0 0 1 1 0 0 1 0 0 1 1 0 1
    0       1    0 0 0 1 0 0 0 1 0 1 1 0 0 0 1 0 1 0 1 0 1 1 0 0 1 1 0 0 0 0 0 0 1 0 0 0 1 1 0 0 0 1 1 1 1 0 0 0 1 0 0
    1       1    0 0 0 1 0 0 0 0 0 1 0 0 1 1 0 0 1 0 0 1 1 0 0 1 1
    7       2    0 1 0 0 1 0 0 1 0 0 0 0 1 0 0 0 0 1 1 1 0 0 0 0 0 1 0 0 1 0 1 1 0 0 1 0 0 1 0 0 1 1 0 0 1 0 0 1 1 0 1
    0       1    0 0 1 0 0 0 1 1 0 0 1 1 0 0 0 0 1 0 1 0 1 1 1 0 1 1 0 0 0 0 0 0 1 0 0 0 1 1 0 0 0 1 1 1 1 0 0 0 1 0 0
    1       1    0 0 0 1 0 0 0 0 0 1 0 1 1 1 0 0 1 0 0 1 1 0 0 1 1
    8       2    0 1 0 0 1 0 0 1 0 0 0 0 1 0 0 0 1 1 0 1 0 0 1 0 0 0 0 1 1 0 0 1 0 0 1 0 0 1 0 0 1 1 0 0 1 0 0 1 1 0 1
    0       1    0 0 1 0 0 0 1 1 0 0 1 1 0 0 0 0 1 0 1 0 0 1 1 0 1 1 0 0 0 0 0 0 1 0 0 0 1 1 0 0 0 1 1 1 1 0 0 0 1 0 0
    1       1    0 0 0 1 0 0 0 0 0 1 0 0 1 1 0 1 0 0 0 1 1 0 0 1 1
    9       2    0 1 0 0 1 0 0 1 0 0 0 0 1 1 0 0 0 1 0 0 0 0 1 0 0 1 0 1 1 0 1 1 0 1 1 0 0 1 0 0 1 1 0 0 1 0 0 1 1 0 1
    0       1    0 0 1 0 0 0 1 1 0 1 1 1 0 0 0 0 1 0 0 0 0 1 1 0 1 1 0 0 0 0 0 0 1 0 0 0 1 1 0 0 0 1 1 1 1 0 0 0 1 0 0
    1       1    0 0 0 1 0 0 0 0 0 1 0 0 0 1 0 1 0 0 0 1 1 0 0 1 1
   10       2    0 1 0 0 1 0 0 1 0 0 0 0 1 0 0 0 1 1 0 1 0 0 1 1 0 0 0 1 1 0 0 1 0 1 1 0 0 1 0 0 1 1 0 0 1 0 0 1 1 0 1
    0       1    0 0 1 0 0 0 0 1 0 0 1 0 0 0 0 0 1 0 1 0 1 1 1 0 1 1 0 0 0 0 0 0 1 0 0 0 1 1 0 0 0 1 1 1 1 0 0 0 1 0 0
    1       1    0 0 0 1 0 0 0 0 0 1 0 0 0 1 0 0 1 1 0 1 1 0 0 1 1
   11       2    0 1 0 0 1 0 0 1 0 0 0 0 1 1 1 0 0 1 1 1 0 0 1 1 0 0 0 1 1 0 1 1 0 0 1 0 0 1 0 0 1 1 0 0 1 0 1 1 1 0 1
    0       1    0 0 0 0 0 0 1 1 0 1 1 1 0 0 0 0 1 0 0 0 1 1 0 0 1 1 0 0 0 0 0 0 1 1 0 0 1 1 0 0 0 1 1 1 1 0 0 0 1 0 0
    1       1    0 0 0 1 0 0 0 1 0 1 0 1 1 1 0 0 1 1 0 1 1 0 0 1 1
   12       2    0 1 0 0 1 0 0 1 0 0 0 0 1 1 1 0 1 1 1 1 0 0 1 1 0 0 0 1 1 0 1 1 0 0 1 0 0 1 0 0 1 1 0 0 1 0 1 1 1 0 1
    0       1    0 0 0 0 0 0 1 1 0 1 1 0 0 0 0 0 1 0 0 0 1 1 0 0 1 1 0 0 0 0 0 0 1 1 0 0 0 1 0 0 0 1 1 1 1 0 0 0 1 0 0
    1       1    0 0 0 1 0 0 0 1 0 1 0 1 1 1 0 0 1 1 0 1 1 0 0 1 1
   13       2    0 1 0 0 1 0 0 1 0 0 0 0 0 0 1 0 0 1 1 1 0 0 0 0 0 1 0 1 1 0 1 1 0 0 0 0 0 1 0 0 1 1 0 0 1 0 0 1 1 0 1
    0       1    0 0 0 0 0 0 1 1 0 1 1 1 0 0 0 0 1 0 0 0 1 1 0 0 1 1 0 0 0 0 0 1 1 0 0 0 1 1 0 0 0 1 1 1 1 0 0 0 1 0 0
    1       1    0 0 0 1 0 0 1 0 0 1 0 1 1 1 0 0 1 1 0 1 1 0 0 1 1
   14       2    0 1 0 0 1 0 0 1 0 0 0 0 1 1 0 0 1 1 1 1 0 0 0 1 0 1 0 0 1 0 1 1 0 0 0 0 0 1 0 0 1 1 0 0 1 0 0 1 1 0 1
    0       1    0 0 0 0 0 0 0 1 0 1 1 0 0 1 0 0 1 0 0 0 1 1 0 0 1 1 0 0 0 0 0 0 1 0 0 0 1 1 0 0 1 1 1 1 1 0 0 0 1 0 0
    1       1    0 0 0 1 0 0 1 0 0 1 0 0 1 1 0 1 1 0 0 1 1 0 0 1 1
   15       2    0 1 0 0 1 0 0 1 0 0 0 0 1 1 0 0 1 1 1 1 0 0 0 1 0 1 0 0 1 0 1 1 0 0 0 0 0 1 0 0 1 1 0 0 1 0 0 1 1 0 1
    0       1    0 0 0 0 0 0 0 1 0 1 1 1 0 0 0 0 1 0 1 0 1 1 1 0 1 1 0 0 0 0 0 0 1 0 0 0 1 1 0 0 1 1 1 1 1 0 0 0 1 0 0
    1       1    0 0 0 1 0 0 1 0 0 1 0 1 1 1 0 1 1 1 0 1 1 0 0 1 1
   16       2    0 1 0 0 1 0 0 1 0 0 0 0 0 0 1 0 0 1 1 1 0 0 0 0 0 1 0 1 1 0 1 1 0 0 0 0 0 1 0 0 1 1 0 0 1 0 0 1 1 0 1
    0       1    0 0 0 0 0 0 1 1 0 1 1 1 0 1 0 0 1 0 0 0 1 1 0 0 1 1 0 0 0 0 0 1 1 0 0 0 0 1 0 0 0 1 1 1 1 0 0 0 1 0 0
    1       1    0 0 0 1 0 0 1 0 0 1 0 1 1 1 0 0 1 1 0 1 1 0 0 1 1
   17       2    0 1 0 0 1 0 0 1 0 0 0 0 0 1 1 0 0 1 1 1 0 1 1 0 0 0 0 0 1 0 1 1 0 0 0 0 0 1 0 0 1 1 0 0 1 0 0 1 1 0 1
    0       1    0 0 0 0 0 0 1 1 0 1 1 1 0 0 0 0 1 0 0 0 1 1 0 0 1 1 0 0 0 0 0 0 1 0 0 0 1 1 0 1 1 1 1 1 1 0 0 0 1 0 0
    1       1    0 0 0 1 0 0 1 0 0 0 0 0 1 1 0 1 1 0 0 1 1 0 0 1 1
   18       2    0 1 0 0 1 0 0 1 0 0 0 0 0 0 1 0 1 1 1 0 0 0 1 0 0 1 0 1 1 0 1 1 0 0 0 0 0 1 0 0 1 1 0 0 1 0 0 1 1 0 1
    0       1    0 0 0 0 0 0 1 1 0 0 1 1 0 0 0 0 1 0 1 0 1 1 0 0 1 1 0 0 0 0 0 0 1 1 0 0 0 1 0 0 0 1 1 1 1 0 0 0 1 0 0
    1       1    0 0 0 1 0 0 1 0 0 1 0 1 1 1 0 1 0 1 0 1 1 0 0 1 1
   19       2    0 1 0 0 1 0 0 1 0 0 0 0 0 0 1 0 1 1 1 1 0 0 0 0 0 0 0 0 1 0 1 1 0 0 0 0 0 1 0 0 1 1 0 0 1 0 0 1 1 0 1
    0       1    0 0 0 0 0 0 0 1 0 1 1 1 0 1 0 0 1 0 0 0 1 1 0 0 1 1 0 0 0 0 0 1 1 0 0 0 1 1 0 0 1 1 1 1 1 0 0 0 1 0 0
    1       1    0 0 0 1 0 0 1 0 0 1 0 1 1 1 0 0 1 0 0 1 1 0 0 1 1
   20       2    0 1 0 0 1 0 0 1 0 0 0 0 1 1 0 0 0 1 1 1 0 0 0 0 0 1 0 0 1 0 1 1 0 0 0 0 0 1 0 0 1 1 0 0 1 0 0 1 1 0 1
    0       1    0 0 0 0 0 0 0 1 0 1 1 0 0 1 0 0 0 0 0 0 1 1 0 0 1 1 0 0 0 0 0 0 1 0 0 0 1 1 0 0 1 1 1 1 1 0 0 0 1 0 0
    1       1    0 0 0 1 0 0 1 0 0 1 0 0 1 1 0 1 1 1 0 1 1 0 0 1 1
   21       2    0 1 0 0 1 0 0 1 0 0 0 0 1 0 0 0 1 1 1 1 0 1 1 1 0 1 0 1 1 0 0 1 0 1 0 0 0 1 0 0 1 1 0 0 1 0 0 1 1 0 1
    0       1    0 0 0 0 0 0 0 1 0 1 1 0 0 0 0 0 1 0 1 0 1 1 1 0 1 1 0 0 0 0 0 1 1 0 0 0 1 1 0 0 1 1 1 1 1 0 0 0 1 0 0
    1       1    0 0 0 1 0 0 1 0 0 1 0 1 0 1 0 0 1 0 0 1 1 0 0 1 1
   22       2    0 1 0 0 1 0 0 1 0 0 0 0 0 1 1 0 1 1 0 1 0 0 1 1 0 0 0 1 1 0 1 1 0 0 0 0 0 1 0 0 1 1 0 0 1 0 0 1 1 0 1
    0       1    0 0 0 0 0 0 0 1 0 1 1 0 0 0 0 0 1 0 0 0 1 1 1 0 1 1 0 0 0 0 0 0 1 0 0 0 1 1 0 1 1 1 1 1 1 0 0 0 1 0 0
    1       1    0 0 0 1 0 0 1 0 0 1 0 0 1 1 0 1 0 0 0 1 1 0 0 1 1
   23       2    0 1 0 0 1 0 0 1 0 0 0 0 0 1 1 0 0 1 0 1 0 1 1 1 0 0 0 1 1 0 1 1 0 0 0 0 0 1 0 0 1 1 0 0 1 0 0 1 1 0 1
    0       1    0 0 0 0 0 0 0 1 0 1 1 0 0 0 0 0 1 0 0 0 1 1 1 0 1 1 0 0 0 0 0 0 1 0 0 0 1 1 0 1 1 1 1 1 1 0 0 0 1 0 0
    1       1    0 0 0 1 0 0 1 0 0 1 0 0 1 1 0 1 1 0 0 1 1 0 0 1 1
   24       2    0 1 0 0 1 0 0 1 0 0 0 0 0 1 1 0 1 1 1 1 0 0 1 0 0 0 0 0 1 0 1 1 0 0 0 0 0 1 0 0 1 1 0 0 1 0 0 1 1 0 1
    0       1    0 0 0 0 0 0 1 1 0 1 1 1 0 0 0 0 1 0 0 0 1 1 0 0 1 1 0 0 0 0 0 0 1 0 0 0 1 1 0 1 1 1 1 1 1 0 0 0 1 0 0
    1       1    0 0 0 1 0 0 1 0 0 0 0 0 1 1 0 1 0 0 0 1 1 0 0 1 1
   25       2    0 1 0 0 1 0 0 1 0 0 0 0 1 0 0 0 1 1 1 1 0 0 0 1 0 1 0 1 1 0 1 1 0 1 0 1 0 1 0 0 1 1 0 0 1 0 0 1 1 0 1
    0       1    0 0 0 0 0 0 0 1 0 1 1 0 0 0 0 0 1 0 0 0 1 1 1 0 1 1 0 0 0 0 0 0 1 0 0 0 1 1 0 0 0 1 1 1 1 0 0 0 1 0 0
    1       1    0 0 0 1 0 0 1 0 0 1 0 1 1 1 0 1 1 0 0 1 1 0 0 1 1
   26       2    0 1 0 0 1 0 0 1 0 0 0 0 1 1 1 0 0 1 1 1 0 1 1 0 0 1 0 0 1 0 1 1 0 0 0 0 0 1 0 0 1 1 0 0 1 0 0 1 1 0 1
    0       1    0 0 0 0 0 0 1 1 0 0 0 1 0 0 0 0 1 0 0 0 1 1 1 0 1 1 0 0 0 0 0 0 1 1 0 0 1 1 0 0 0 1 1 1 1 0 0 0 1 0 0
    1       1    0 0 0 1 0 0 1 0 0 0 0 1 1 1 0 0 0 0 0 1 1 0 0 1 1
   27       2    0 1 0 0 1 0 0 1 0 0 0 0 1 0 0 0 0 1 1 1 0 0 0 1 0 1 0 1 1 0 1 1 0 0 1 0 0 1 0 0 1 1 0 0 1 0 0 1 1 0 1
    0       1    0 0 0 0 0 0 0 1 0 1 1 1 0 0 0 0 1 0 0 0 1 1 1 0 1 1 0 0 0 0 0 0 1 0 0 0 1 1 0 0 0 1 1 1 1 0 0 0 1 0 0
    1       1    0 0 0 1 0 0 1 0 0 1 0 1 1 1 0 1 1 0 0 1 1 0 0 1 1
   28       2    0 1 0 0 1 0 0 1 0 0 0 0 1 1 1 0 0 1 1 1 0 1 1 0 0 0 0 1 1 0 1 1 0 0 0 0 0 1 0 0 1 1 0 0 1 0 0 1 1 0 1
    0       1    0 0 0 0 0 0 1 1 0 1 1 1 0 0 0 0 1 0 0 0 1 1 0 0 1 1 0 0 0 0 0 0 1 0 0 0 1 1 0 0 0 1 1 1 1 0 0 0 1 0 0
    1       1    0 0 0 1 0 0 1 0 0 0 0 1 1 1 0 0 1 0 0 1 1 0 0 1 1
   29       2    0 1 0 0 1 0 0 1 0 0 0 0 0 0 1 0 1 1 1 1 0 0 0 0 0 0 0 1 1 0 0 1 0 0 0 1 0 1 0 0 1 1 0 0 1 0 0 1 1 0 1
    0       1    0 0 0 0 0 0 0 1 0 1 1 1 0 1 0 0 1 0 0 1 1 1 0 0 1 1 0 0 0 0 0 1 1 1 0 0 1 1 0 0 1 1 1 1 1 0 0 0 1 0 0
    1       1    0 0 0 1 0 0 1 0 0 1 1 1 1 1 0 0 1 0 0 1 1 0 0 1 1
   30       2    0 1 0 0 1 0 0 1 0 0 0 0 1 1 1 0 1 1 1 1 0 0 1 0 0 1 0 0 1 0 1 1 0 0 0 0 0 1 0 0 1 1 0 0 1 0 0 1 1 0 1
    0       1    0 0 0 0 0 0 1 1 0 1 1 0 0 0 0 0 1 0 0 0 1 1 0 0 1 1 0 0 0 0 0 1 1 0 0 0 0 1 0 0 0 1 1 1 1 0 0 0 1 0 0
    1       1    0 0 0 1 0 0 1 0 0 1 0 1 1 1 0 0 1 1 0 1 1 0 0 1 1
   31       2    0 1 0 0 1 0 0 1 0 0 0 0 0 0 1 0 1 1 1 1 0 0 0 0 0 0 0 0 1 0 1 1 0 0 0 0 0 1 0 0 1 1 0 0 1 0 0 1 1 0 1
    0       1    0 0 0 0 0 0 0 1 0 1 1 1 0 1 0 0 1 0 0 0 1 1 0 0 1 1 0 0 0 0 0 1 1 0 0 0 1 1 0 0 1 1 1 1 1 0 0 0 1 0 0
    1       1    0 0 0 1 0 0 1 0 0 1 0 1 1 1 0 0 1 0 0 1 1 0 0 1 1
   32       2    0 1 0 0 1 0 0 1 0 0 0 0 0 0 0 0 1 1 1 0 1 0 1 1 0 1 0 0 1 0 1 1 0 0 0 0 0 1 0 0 1 1 0 0 1 0 0 1 1 0 1
    0       1    0 0 0 0 0 0 0 1 0 0 1 1 0 0 0 0 1 1 1 0 1 1 0 0 1 1 0 0 0 0 0 0 1 1 0 0 0 1 0 0 0 1 1 1 1 0 0 0 1 0 0
    1       1    0 0 0 1 0 0 1 0 0 1 0 0 1 1 0 1 1 1 0 1 1 0 0 1 1
   33       2    0 1 0 0 1 0 0 1 0 0 0 0 0 0 0 0 1 1 1 1 0 1 1 1 0 1 0 1 1 0 0 1 0 0 1 0 0 1 0 0 1 1 0 0 1 0 0 1 1 0 1
    0       1    0 0 0 0 0 0 0 1 0 0 1 0 0 0 1 0 1 0 1 0 1 1 1 0 1 1 0 0 0 0 0 0 1 0 0 0 1 1 0 0 1 1 1 1 1 0 0 0 1 0 0
    1       1    0 0 0 1 0 0 1 0 0 1 0 1 1 1 0 0 1 0 0 1 1 0 0 1 1
   34       2    0 1 0 0 1 0 0 1 0 0 0 0 0 0 0 0 0 1 1 1 0 0 0 0 0 1 0 1 1 0 1 1 0 1 0 0 0 1 0 0 1 1 0 0 1 0 0 1 1 0 1
    0       1    0 0 0 0 0 0 0 1 0 1 1 1 0 0 0 0 1 0 0 0 1 1 0 0 1 1 0 0 0 0 0 1 1 0 0 0 1 1 0 0 0 1 1 1 1 0 0 0 1 0 0
    1       1    0 0 0 1 0 0 1 0 0 1 0 1 0 1 0 0 1 1 0 1 1 0 0 1 1
   35       2    0 1 0 0 1 0 0 1 0 0 0 0 0 0 1 0 1 1 1 1 0 0 1 0 0 0 0 1 1 0 0 1 0 0 0 0 0 1 0 0 1 1 0 0 1 0 0 1 1 0 1
    0       1    0 0 0 0 0 0 1 1 0 1 1 0 0 0 0 0 1 0 0 0 1 1 1 0 1 1 0 0 0 0 0 0 1 0 0 0 1 1 0 1 1 1 1 1 1 0 0 0 1 0 0
    1       1    0 0 0 1 0 0 1 0 0 1 0 0 1 1 0 1 1 0 0 1 1 0 0 1 1
   36       2    0 1 0 0 1 0 0 1 0 0 0 0 0 0 1 0 0 1 1 1 0 0 1 0 0 1 0 0 1 0 1 1 0 0 0 0 0 1 0 0 1 1 0 0 1 0 0 1 1 0 1
    0       1    0 0 0 0 0 0 0 1 0 1 1 0 0 0 0 0 1 0 0 0 1 1 0 0 1 1 0 0 0 0 0 0 1 0 0 0 0 1 0 1 1 1 1 1 1 0 0 0 1 0 0
    1       1    0 0 0 1 0 0 1 0 0 1 0 0 1 1 0 1 1 0 0 1 1 0 0 1 1
   37       2    0 1 0 0 1 0 0 1 0 0 0 0 0 1 1 0 1 1 0 1 1 0 0 0 0 0 0 1 1 0 0 1 0 0 0 0 0 1 0 0 1 1 0 0 1 0 0 1 1 0 1
    0       1    0 0 0 0 0 0 0 1 0 0 1 1 0 0 0 0 1 0 0 1 1 1 1 0 1 1 0 0 0 0 0 0 1 1 0 0 1 1 0 0 1 1 1 1 1 0 0 0 1 0 0
    1       1    0 0 0 1 0 0 1 0 0 1 1 1 1 1 0 1 0 1 0 1 1 0 0 1 1
   38       2    0 1 0 0 1 0 0 1 0 0 0 0 1 0 0 0 0 1 1 1 0 1 0 1 0 1 0 0 1 0 0 1 0 1 0 0 0 1 0 0 1 1 0 0 1 0 0 1 1 0 1
    0       1    0 0 0 0 0 0 0 1 0 0 1 1 0 0 0 0 1 0 1 0 1 1 1 0 1 1 0 0 0 0 0 1 1 0 0 0 1 1 0 0 1 1 1 1 1 0 0 0 1 0 0
    1       1    0 0 0 1 0 0 1 0 0 1 0 0 0 1 0 0 0 0 0 1 1 0 0 1 1
   39       2    0 1 0 0 1 0 0 1 0 0 0 0 1 1 0 0 0 1 1 1 0 0 0 0 0 1 0 0 1 0 1 1 0 0 0 0 0 1 0 0 1 1 0 0 1 0 0 1 1 0 1
    0       1    0 0 0 0 0 0 0 1 0 1 1 1 0 0 0 0 0 0 1 0 1 1 0 0 1 1 0 0 0 0 0 0 1 0 0 0 1 1 0 0 1 1 1 1 1 0 0 0 1 0 0
    1       1    0 0 0 1 0 0 1 0 0 1 0 1 1 1 0 1 1 1 0 1 1 0 0 1 1
   40       2    0 1 0 0 1 0 0 1 0 0 0 0 0 1 1 0 0 1 1 1 0 0 0 0 0 1 0 0 1 0 1 1 0 0 0 0 0 1 0 0 1 1 0 0 1 0 0 1 1 0 1
    0       1    0 0 0 0 0 0 0 1 1 1 1 1 0 0 0 0 0 0 0 0 1 1 0 0 1 1 0 0 0 0 0 0 1 0 0 0 1 1 0 0 1 1 1 1 1 0 0 0 1 0 0
    1       1    0 0 0 1 0 0 1 0 0 1 0 0 0 1 0 0 1 1 0 1 1 0 0 1 1
   41       2    0 1 0 0 1 0 0 1 0 0 0 0 0 1 1 0 0 1 1 1 0 0 1 0 0 1 0 0 1 0 0 1 0 0 0 0 0 1 0 0 1 1 0 0 1 0 0 1 1 0 1
    0       1    0 0 0 0 0 0 1 1 0 1 1 1 0 0 0 0 1 0 0 0 0 1 0 0 1 1 0 0 0 0 0 0 1 0 0 0 1 1 0 0 1 1 1 1 1 0 0 0 1 0 0
    1       1    0 0 0 1 0 0 1 0 0 1 0 0 1 1 0 0 1 0 0 1 1 0 0 1 1
   42       2    0 1 0 0 1 0 0 1 0 0 0 0 1 0 0 0 1 1 1 1 0 0 0 0 0 1 0 0 1 0 1 1 0 1 0 0 0 1 0 0 1 1 0 0 1 0 0 1 1 0 1
    0       1    0 0 0 0 1 0 1 0 0 1 1 1 0 1 0 0 1 0 0 0 1 1 0 0 1 1 0 0 0 0 0 1 0 1 0 0 0 1 0 0 0 1 1 1 1 0 0 0 1 0 0
    1       1    0 0 0 1 0 0 1 0 0 1 0 0 1 1 0 0 1 0 0 1 1 0 0 1 1
   43       2    0 1 0 0 1 0 0 1 0 0 0 0 0 0 1 1 1 1 1 1 0 0 0 0 0 0 0 1 1 1 0 1 0 0 0 0 0 1 0 0 1 1 0 0 1 0 0 1 1 0 1
    0       1    0 0 0 0 0 0 0 1 0 0 1 1 0 1 0 0 1 0 0 1 1 1 1 0 1 1 0 0 0 0 0 0 1 1 0 0 1 1 0 0 1 1 1 1 1 0 0 0 1 0 0
    1       1    0 0 0 1 0 0 1 0 0 1 1 1 1 1 0 1 1 1 0 1 1 0 0 1 1
   44       2    0 1 0 0 1 0 0 1 0 0 0 0 0 1 0 0 0 1 1 1 0 0 0 1 0 1 0 0 1 0 1 1 0 0 0 0 0 1 0 0 1 1 0 0 1 0 0 1 1 0 1
    0       1    0 0 0 0 0 0 1 1 0 1 1 1 0 0 0 0 1 0 0 0 1 1 0 0 1 1 0 0 0 0 0 1 1 0 0 0 1 1 0 0 1 1 1 1 1 0 0 0 1 0 0
    1       1    0 0 0 1 0 0 1 0 0 1 0 1 1 1 0 0 1 1 0 1 1 0 0 1 1
   45       2    0 1 0 0 1 0 0 1 0 0 0 0 1 0 1 0 1 1 1 1 0 0 0 0 0 1 0 1 1 0 1 1 0 0 0 0 0 1 0 0 1 1 0 0 1 0 0 1 1 0 1
    0       1    0 0 0 0 0 0 0 1 0 1 1 1 0 0 0 0 1 0 1 0 1 1 1 0 1 1 0 0 0 0 0 0 1 0 0 0 1 1 0 0 0 1 1 1 1 0 0 0 1 0 0
    1       1    0 0 0 1 0 0 1 0 0 1 0 1 1 1 1 1 1 1 0 1 1 0 0 1 1
   46       2    0 1 0 0 1 0 0 1 0 0 0 0 1 0 0 0 0 1 1 1 0 1 1 1 0 1 0 1 1 0 1 1 0 0 0 0 0 1 0 0 1 1 0 0 1 0 0 1 1 0 1
    0       1    0 0 0 0 0 0 1 1 0 0 1 0 0 0 0 0 1 0 0 0 1 1 1 0 1 1 0 0 0 0 0 1 1 0 0 0 1 1 0 0 1 1 1 1 1 0 0 0 1 0 0
    1       1    0 0 0 1 0 0 1 0 0 1 0 1 1 1 0 0 1 1 0 1 1 0 0 1 1
   47       2    0 1 0 0 1 0 0 1 0 0 0 0 0 1 1 0 1 1 1 1 0 0 1 0 0 1 0 1 1 0 1 1 0 0 0 0 0 1 0 0 1 1 0 0 1 0 0 1 1 0 1
    0       1    0 0 0 0 0 0 0 1 0 0 1 0 0 0 0 0 1 0 0 0 1 1 1 0 1 1 0 0 0 0 0 0 1 0 0 0 1 1 0 0 0 1 1 1 1 0 0 0 1 0 0
    1       1    0 0 0 1 0 0 1 0 0 0 0 1 1 1 0 0 0 0 0 1 1 0 0 1 1
   48       2    0 1 0 0 1 0 0 1 0 0 0 0 1 1 1 0 0 1 0 1 0 1 1 1 0 0 0 0 1 0 1 1 0 0 0 0 0 1 0 0 1 1 0 0 1 0 0 1 1 0 1
    0       1    0 0 0 0 0 0 1 1 0 1 1 1 0 0 0 0 1 0 0 0 1 1 1 0 1 1 0 0 0 0 0 0 1 1 0 0 1 1 0 1 1 1 1 1 1 0 0 0 1 0 0
    1       1    0 0 0 1 0 0 1 0 0 1 0 0 1 1 0 1 0 0 0 1 1 0 0 1 1
   49       2    0 1 0 0 1 0 0 1 0 0 0 0 1 0 0 0 1 1 0 1 0 0 1 0 0 0 0 1 1 0 0 0 0 0 0 0 0 1 0 0 1 1 0 0 1 0 0 1 1 0 1
    0       1    0 0 0 0 0 0 1 1 0 0 1 1 0 0 0 0 1 0 1 0 0 1 1 0 1 1 0 0 0 0 0 0 1 1 0 0 1 1 0 0 0 1 1 1 1 0 0 0 1 0 0
    1       1    0 0 0 1 0 0 1 0 0 1 0 0 0 1 0 1 0 0 0 1 1 0 0 1 1
   50       2    0 1 0 0 1 0 0 1 0 0 0 0 0 0 0 0 1 1 1 1 1 0 1 0 0 1 0 0 1 0 1 1 0 0 0 0 0 1 0 0 1 1 0 0 1 0 0 1 1 0 1
    0       1    0 0 0 0 0 0 0 1 0 1 1 1 0 0 0 0 1 0 1 1 1 1 0 0 1 1 0 0 0 0 0 0 1 0 0 0 0 1 0 0 0 1 1 1 1 0 0 0 1 0 0
    1       1    0 0 0 1 0 0 1 0 0 1 0 1 1 1 0 1 1 1 0 1 1 0 0 1 1
   51       2    0 1 0 0 1 0 0 1 0 0 0 0 0 1 1 0 0 1 1 1 0 1 1 0 0 0 0 0 1 0 0 1 0 0 0 0 0 1 0 0 1 1 0 0 1 0 0 1 1 0 1
    0       1    0 0 0 0 0 0 1 1 0 1 1 1 0 0 0 0 1 0 0 1 1 1 1 0 1 1 0 0 0 0 0 1 1 0 0 0 1 1 0 0 1 1 1 1 1 0 0 0 1 0 0
    1       1    0 0 0 1 0 0 1 0 0 0 0 1 1 1 0 0 1 0 0 1 1 0 0 1 1
   52       2    0 1 0 0 1 0 0 1 0 0 0 0 1 1 1 0 0 1 1 1 0 0 0 0 0 1 0 0 1 0 1 1 0 0 0 0 0 1 0 0 1 1 0 0 1 0 0 1 1 0 1
    0       1    0 0 0 0 0 0 1 1 0 1 1 1 0 0 0 0 1 0 0 0 1 1 1 0 1 1 0 0 0 0 0 0 1 0 0 0 0 1 0 0 0 1 1 1 1 0 0 0 1 0 0
    1       1    0 0 0 1 0 0 1 0 0 1 0 1 1 1 0 0 1 1 0 1 1 0 0 1 1
   53       2    0 1 0 0 1 0 0 1 0 0 0 0 0 1 1 0 1 1 1 1 0 0 0 0 0 1 0 0 1 0 1 1 0 0 0 1 0 1 0 0 1 1 0 0 1 0 0 1 1 0 1
    0       1    0 0 0 0 0 0 1 1 1 1 1 1 0 1 0 0 1 0 0 0 1 1 0 0 1 1 0 0 0 0 0 0 1 0 0 0 1 1 0 0 1 1 1 1 1 0 0 0 1 0 0
    1       1    0 0 0 1 0 0 1 0 0 1 0 0 1 0 0 0 1 0 0 1 1 0 0 1 1
   54       2    0 1 0 0 1 0 0 1 0 0 0 0 1 0 0 0 1 1 1 1 0 0 1 0 0 0 0 1 1 0 0 1 0 0 1 1 0 1 0 0 1 1 0 0 1 0 0 1 1 0 1
    0       1    0 0 0 0 0 0 1 1 0 1 1 1 0 0 0 0 1 0 1 1 1 1 1 0 1 1 0 0 0 0 0 0 1 0 0 0 1 1 0 0 0 1 1 1 1 0 0 0 1 0 0
    1       1    0 0 0 1 0 0 1 0 0 1 0 0 1 1 0 1 0 0 0 1 1 0 0 1 1
   8800000.00000000        1618033.00000000       0.000000000000000E+000
  1.136363636363636E-007   3014628.00000000        2540149.00000000     
           1          47          23
   1862508.00000000        8331166.00000000        5747057.00000000     
   7208826.00000000        3210206.00000000        5156387.00000000     
   566161.000000000        5297683.00000000        5217191.00000000     
   3967490.00000000        5200872.00000000        8212056.00000000     
   4648832.00000000        87563.0000000000        7498182.00000000     
   4165766.00000000        6945393.00000000        1639980.00000000     
   1424373.00000000        3042191.00000000        1893418.00000000     
   2565579.00000000        6490346.00000000        4077743.00000000     
   5603532.00000000        890913.000000000        7773999.00000000     
   7415604.00000000        8573947.00000000        3843904.00000000     
   628039.000000000        849220.000000000        1044070.00000000     
   2302303.00000000        7210277.00000000        1359771.00000000     
   8039112.00000000        6718905.00000000        5237121.00000000     
   6826126.00000000        5397883.00000000        1463925.00000000     
   525556.000000000        4921349.00000000        5813615.00000000     
   6036481.00000000        3014628.00000000        1657478.00000000     
   2406037.00000000        4317946.00000000        7806062.00000000     
   1538691.00000000        4696712.00000000        3499516.00000000     
   6407713.00000000     
   8800000.00000000        1618033.00000000       0.000000000000000E+000
  1.136363636363636E-007   4667512.00000000        2129117.00000000     
           1          19          50
   4575001.00000000        5396563.00000000        6040598.00000000     
   5425049.00000000        6496600.00000000        8377747.00000000     
   6707375.00000000        8622307.00000000        7786611.00000000     
   7169809.00000000        7490683.00000000        2104525.00000000     
   2999017.00000000        3481356.00000000        569648.000000000     
   1983073.00000000        6830595.00000000        8264920.00000000     
   4667512.00000000        8278180.00000000        504685.000000000     
   5143022.00000000        3957932.00000000        2208250.00000000     
   6282693.00000000        7761314.00000000        4362224.00000000     
   386392.000000000        756130.000000000        115997.000000000     
   4618562.00000000        5380505.00000000        5352939.00000000     
   3222533.00000000        1707926.00000000        1972366.00000000     
   6968600.00000000        7356987.00000000        7589173.00000000     
   5423518.00000000        3761411.00000000        7523114.00000000     
   6302806.00000000        4478389.00000000        8614744.00000000     
   429926.000000000        1749319.00000000        7562578.00000000     
   1038739.00000000        6917845.00000000        3588984.00000000     
   8721177.00000000        3467913.00000000        8604207.00000000     
   4387010.00000000     
   8800000.00000000        1618033.00000000       0.000000000000000E+000
  1.136363636363636E-007   2770016.00000000        8322469.00000000     
           1          35          11
   5953466.00000000        1063795.00000000        7772014.00000000     
   2926235.00000000        5370525.00000000        5118224.00000000     
   4113056.00000000        2418178.00000000        2102428.00000000     
   2810783.00000000        7497013.00000000        7480125.00000000     
   6847854.00000000        2488669.00000000        331696.000000000     
   7465580.00000000        657108.000000000        8546352.00000000     
   7857588.00000000        7499326.00000000        3114840.00000000     
   7045466.00000000        3815166.00000000        2657989.00000000     
   3236637.00000000        6180842.00000000        322077.000000000     
   8066647.00000000        8505340.00000000        1383689.00000000     
   2168496.00000000        6119537.00000000        6431392.00000000     
   1050797.00000000        2770016.00000000        2335586.00000000     
   2916836.00000000        3863966.00000000        3199969.00000000     
   970854.000000000        8787777.00000000        1755349.00000000     
   3627983.00000000        816918.000000000        5599086.00000000     
   4035944.00000000        8773020.00000000        3634675.00000000     
   1889026.00000000        5407050.00000000        352204.000000000     
   3656408.00000000        4863879.00000000        3204483.00000000     
   8703075.00000000     
