          62          54   1.00000000000000     
    1       2    0 1 0 0 1 0 0 1 0 1 0 0 1 1 1 1 1 1 1 1 0 0 0 0 0 1 0 1 1 0 0 1 1 0 0 0 0 1 0 0 1 1 0 0 0 0 0 1 0 1 1
    1       1    0 0 0 1 0 0 1 1 1 1 1 1 1 1 0 1 1 0 1 1 1 1 1 1 1 1 0 0 0 0 0 1 1 0 0 0 1 1 0 1 0 1 1 1 1 1 1 0 1 0 0
    1       1    0 1 0 0 1 0 1 0 0 0 0 1 0 0 0 0 1 0 0 1 1 0 0 1 1
    2       2    0 1 0 0 1 0 0 1 0 1 0 0 1 1 1 1 1 1 0 1 0 0 0 0 0 1 0 1 1 0 0 1 1 0 0 0 0 1 0 0 1 1 0 0 0 0 0 1 0 1 1
    1       1    0 0 0 1 0 0 1 1 1 1 1 1 1 1 0 1 1 1 1 1 1 1 1 1 1 1 0 0 0 0 0 1 0 0 0 0 1 1 1 1 0 1 1 1 1 1 1 0 1 0 0
    1       1    0 1 0 0 1 0 1 0 0 0 0 1 0 0 0 0 1 0 0 1 1 0 0 1 1
    3       2    0 1 0 0 1 0 0 1 0 1 0 0 0 1 1 1 1 1 1 0 0 0 0 0 0 1 0 1 1 0 0 1 1 0 0 0 0 1 0 0 1 1 0 0 0 0 0 1 0 1 1
    1       1    0 0 0 1 1 0 1 0 1 1 0 1 1 1 0 0 1 0 1 0 1 1 1 1 1 1 0 0 0 0 0 1 0 0 0 0 1 1 1 1 1 1 1 1 1 1 1 0 1 0 0
    1       1    0 1 0 0 1 0 1 0 0 0 0 0 1 1 0 0 0 1 0 1 1 0 0 1 1
    4       2    0 1 0 0 1 0 0 1 0 1 0 0 1 1 1 1 1 1 1 0 0 0 0 0 0 1 0 1 1 0 0 1 1 0 0 0 0 1 0 0 1 1 0 0 0 0 0 1 0 1 1
    1       1    0 0 0 1 1 0 1 0 1 1 0 1 1 1 0 0 1 1 1 0 1 1 1 0 1 1 0 0 0 0 0 1 0 0 1 0 1 1 1 1 1 1 1 1 1 1 1 0 1 0 0
    1       1    0 1 0 0 1 0 1 0 0 0 0 0 1 1 0 0 0 1 0 1 1 0 0 1 1
    5       2    0 1 0 0 1 0 0 1 0 1 0 0 1 1 1 1 1 1 1 1 0 0 0 0 0 1 0 1 1 0 0 1 1 0 0 0 0 1 0 0 1 1 0 0 0 0 0 1 0 1 1
    1       1    0 0 0 1 0 0 1 1 1 1 0 1 1 1 0 0 1 0 1 0 1 1 1 0 1 1 0 0 0 0 0 1 0 0 1 0 1 1 1 1 1 1 1 1 1 1 1 0 1 0 0
    1       1    0 1 0 0 1 0 1 0 0 0 0 0 1 1 0 1 0 1 0 1 1 0 0 1 1
    6       2    0 1 0 0 1 0 0 1 0 1 0 0 1 1 1 1 0 1 0 1 0 0 0 0 0 1 0 1 1 0 0 1 1 0 0 0 0 1 0 0 1 1 0 0 0 0 0 1 0 1 1
    1       1    0 0 0 1 0 0 1 1 1 1 1 1 1 1 0 1 1 1 1 1 1 1 1 1 1 1 0 0 0 0 0 1 0 0 0 0 1 1 1 1 0 1 1 1 1 1 1 0 1 0 0
    1       1    0 1 0 0 1 0 1 0 0 0 0 1 0 0 0 0 1 0 0 1 1 0 0 1 1
    7       2    0 1 0 0 1 0 0 1 0 1 0 1 1 1 1 1 1 1 1 1 0 0 0 0 0 1 0 1 1 0 0 1 1 0 0 0 0 1 0 0 1 1 0 0 0 0 0 1 0 1 1
    1       0    0 0 0 1 1 1 1 1 1 1 0 1 1 1 0 0 1 0 1 0 1 1 1 1 1 1 0 0 0 0 0 0 0 1 0 0 1 1 1 1 1 1 1 1 1 1 1 1 1 0 0
    1       1    0 1 0 1 0 0 1 0 0 1 0 1 0 1 0 0 1 0 0 1 1 0 0 1 1
    8       2    0 1 0 0 1 0 0 1 0 1 0 1 1 1 1 1 1 1 1 1 0 0 0 0 0 1 0 1 1 0 0 1 1 0 0 0 0 1 0 0 1 1 0 0 0 0 0 1 0 1 1
    1       1    0 0 0 0 1 0 1 1 1 0 0 1 1 1 0 1 1 0 1 0 0 1 1 1 1 1 0 0 0 0 0 1 0 0 0 0 1 1 1 1 0 1 1 1 1 1 0 0 1 0 1
    1       1    0 1 0 1 1 0 1 0 0 0 0 1 0 1 0 0 1 0 0 1 1 0 0 1 1
    9       2    0 1 0 0 1 0 0 1 0 1 0 1 1 1 1 1 1 1 1 1 1 1 0 0 0 1 0 1 1 0 0 1 1 0 0 1 0 1 0 0 1 1 0 0 0 0 0 1 0 1 1
    1       1    0 0 0 1 1 0 1 1 1 0 0 1 1 1 0 0 1 0 1 0 1 1 1 1 1 1 0 0 0 0 0 1 0 0 0 0 1 1 1 1 1 1 1 1 1 1 0 0 1 0 0
    1       1    0 1 0 1 1 0 1 0 0 0 0 1 0 1 1 0 1 0 0 1 1 0 0 1 1
   10       2    0 1 0 0 1 0 0 1 0 1 0 0 1 1 1 1 1 1 1 1 0 1 0 0 0 1 0 1 1 0 0 1 1 0 0 0 0 1 0 0 1 1 0 0 0 0 0 1 0 1 1
    1       0    0 0 0 0 1 0 1 1 0 1 0 1 1 1 0 0 1 0 1 0 1 1 1 1 1 1 0 0 0 0 0 1 0 0 0 0 1 1 1 1 0 1 1 1 1 1 1 0 1 0 1
    1       1    0 1 0 1 1 0 1 0 0 0 0 1 0 1 0 0 0 0 0 1 1 0 0 1 1
   11       2    0 1 0 0 1 0 0 1 0 1 0 0 1 1 1 1 1 1 1 1 0 0 0 0 0 1 0 1 1 0 0 1 1 0 1 0 0 1 0 0 1 1 0 0 0 0 0 1 0 1 1
    1       0    0 0 0 0 1 0 1 1 0 1 0 1 1 1 0 0 1 0 1 0 1 1 1 1 1 1 0 0 0 0 0 1 0 0 0 0 1 1 1 1 0 1 1 1 1 1 1 0 1 0 1
    1       1    0 1 0 1 1 0 1 0 0 0 0 1 0 1 1 0 1 0 0 1 1 0 0 1 1
   12       2    0 1 0 0 1 0 0 1 0 1 0 0 1 1 1 1 1 1 1 1 0 1 0 0 0 0 0 1 1 0 0 1 1 0 0 0 0 1 0 0 1 1 0 0 0 0 0 1 0 1 1
    1       0    0 0 0 0 1 0 1 1 1 1 0 1 1 1 0 0 1 0 1 0 1 1 1 1 1 1 0 0 0 0 0 1 0 0 0 0 1 1 1 1 1 1 1 1 1 1 1 0 1 0 1
    1       1    0 1 0 1 1 0 1 0 0 1 0 1 0 1 0 0 1 0 0 1 1 0 0 1 1
   13       2    0 1 0 0 1 0 0 1 0 1 0 0 1 1 1 1 1 1 1 0 0 0 0 0 0 1 0 1 1 0 0 1 1 1 1 1 0 1 0 0 1 1 0 0 0 0 0 1 0 1 1
    1       0    0 0 0 0 1 1 1 1 0 1 0 1 0 1 0 1 1 0 1 0 1 1 1 1 1 1 0 0 0 0 0 1 0 0 0 0 1 1 1 1 0 1 1 1 1 1 1 0 1 0 1
    1       1    0 1 0 1 1 0 1 0 0 0 0 1 0 0 1 0 1 0 0 1 1 0 0 1 1
   14       2    0 1 0 0 1 0 0 1 0 1 0 0 0 1 1 1 1 1 1 1 1 1 0 0 0 1 0 1 1 0 0 1 1 0 0 0 0 1 0 0 1 1 0 0 0 0 0 1 0 1 1
    1       0    0 0 0 0 1 0 1 1 1 0 0 1 0 1 0 0 1 0 1 0 1 1 1 1 1 1 0 0 0 0 0 1 0 0 1 0 1 1 1 1 0 1 1 1 1 1 1 0 1 0 1
    1       1    0 1 0 1 1 0 1 0 0 0 0 1 0 1 1 0 0 0 0 1 1 0 0 1 1
   15       2    0 1 0 0 1 0 0 1 0 1 0 0 1 1 1 1 1 1 1 1 0 0 0 0 0 1 0 1 1 0 0 1 1 0 0 0 0 1 0 0 1 1 0 0 0 0 0 1 0 1 1
    1       0    0 0 0 1 1 0 1 1 1 1 0 1 1 1 0 0 1 1 1 0 1 1 1 1 1 1 0 0 0 0 0 0 0 0 0 0 1 1 1 1 0 1 1 1 1 1 1 0 1 0 0
    1       1    0 1 0 1 1 0 1 0 0 0 0 1 0 1 0 0 1 0 0 1 1 0 0 1 1
   16       2    0 1 0 0 1 0 0 1 0 1 0 1 0 1 1 1 1 1 1 1 0 0 0 0 0 1 0 1 1 0 0 1 1 0 0 0 0 1 0 0 1 1 0 0 0 0 0 1 0 1 1
    1       0    0 0 0 1 1 0 1 1 1 0 0 1 1 1 0 0 1 0 1 0 1 1 1 1 1 1 0 0 0 0 0 1 0 0 0 0 1 1 1 1 1 1 1 1 1 1 1 0 1 0 0
    1       1    0 1 0 1 1 0 1 0 0 0 0 1 0 1 0 0 1 0 0 1 1 0 0 1 1
   17       2    0 1 0 0 1 0 0 1 0 1 0 0 1 1 1 1 1 1 1 1 0 0 0 0 0 1 0 1 1 0 0 1 1 0 0 0 0 1 0 0 1 1 0 0 0 0 0 1 0 1 1
    1       0    0 0 0 1 1 0 1 1 1 1 0 1 1 1 0 0 1 1 1 0 1 1 1 1 1 1 0 0 0 0 0 0 0 0 0 0 1 1 1 1 0 1 1 1 1 1 1 0 1 0 0
    1       1    0 1 0 1 1 0 1 0 0 0 0 1 0 1 0 0 1 0 0 1 1 0 0 1 1
   18       2    0 1 0 0 1 0 0 1 0 1 0 0 1 1 1 1 1 1 1 1 0 0 0 0 0 1 0 1 1 0 0 1 1 0 0 0 0 1 0 0 1 1 0 0 0 0 0 1 0 1 1
    1       0    0 0 0 1 0 0 1 1 1 1 0 1 1 1 0 1 1 1 1 1 1 1 1 1 1 1 0 0 0 0 0 0 0 1 0 0 1 1 0 1 0 1 1 1 1 1 1 0 1 0 0
    1       1    0 1 0 1 1 0 1 0 0 0 0 1 0 0 0 0 1 0 0 1 1 0 0 1 1
   19       2    0 1 0 0 1 0 0 1 0 1 0 0 1 1 1 1 1 1 1 1 0 0 0 0 0 1 0 1 1 0 0 1 1 0 0 0 0 1 0 0 1 1 0 0 0 0 0 1 0 1 1
    1       0    0 0 0 1 1 0 1 1 1 1 0 1 1 1 0 0 1 1 1 0 1 1 1 1 1 1 0 0 0 0 0 0 0 0 0 0 1 1 1 1 0 1 1 1 1 1 1 0 1 0 0
    1       1    0 1 0 1 1 0 1 0 0 0 0 1 0 1 0 0 1 0 0 1 1 0 0 1 1
   20       2    0 1 0 0 1 0 0 1 0 1 0 0 1 1 1 1 1 1 1 1 0 0 0 0 0 1 0 1 1 0 0 1 1 0 0 0 0 1 0 0 1 1 0 0 0 0 0 1 0 1 1
    1       0    0 0 0 1 1 0 1 1 1 1 0 1 1 1 0 0 1 0 1 0 1 1 1 1 1 1 0 0 0 0 0 1 0 0 0 0 1 1 1 1 0 1 1 1 1 1 1 0 1 0 0
    1       1    0 1 0 1 1 0 1 0 0 0 0 1 0 1 0 0 1 0 0 1 1 0 0 1 1
   21       2    0 1 0 0 1 0 0 1 0 1 0 1 0 1 1 1 1 1 1 1 0 0 0 0 0 1 0 1 1 0 0 1 1 0 0 1 0 1 0 0 1 1 0 0 0 0 0 1 0 1 1
    1       0    0 0 0 1 0 0 1 1 1 0 0 1 0 1 0 1 1 0 1 0 1 1 1 1 1 1 0 0 0 0 0 1 0 0 0 0 1 1 1 1 0 1 1 1 1 1 1 0 1 0 0
    1       1    0 1 0 1 1 0 1 0 0 0 0 1 0 0 0 0 1 0 0 1 1 0 0 1 1
   22       2    0 1 0 0 1 0 0 1 0 1 0 0 1 1 1 1 1 1 1 1 0 0 0 0 0 1 0 1 1 0 0 1 1 0 0 0 0 1 0 0 1 1 0 0 0 0 0 1 0 1 1
    1       0    0 0 0 1 1 0 1 0 1 1 0 1 1 1 0 0 1 0 1 0 1 1 1 1 1 1 0 0 0 0 0 0 0 0 0 0 1 1 1 1 0 1 1 1 1 1 1 0 1 0 0
    1       1    0 1 0 1 1 0 1 0 0 0 0 1 0 1 0 0 1 0 0 1 1 0 0 1 1
   23       2    0 1 0 0 1 0 0 1 0 1 0 1 0 1 1 1 1 1 1 1 0 0 0 0 0 1 0 1 1 0 0 1 1 0 0 0 0 1 0 0 1 1 0 0 0 0 0 1 0 1 1
    1       0    0 0 0 1 1 0 1 1 1 0 0 1 1 1 0 0 1 0 1 0 1 1 1 1 1 1 0 0 0 0 0 0 0 0 0 0 1 1 1 1 1 1 1 1 1 1 1 0 1 0 0
    1       1    0 1 0 1 1 0 1 0 0 0 0 1 0 1 0 0 1 0 0 1 1 0 0 1 1
   24       2    0 1 0 0 1 0 0 1 0 1 0 1 0 1 1 1 1 1 1 1 1 0 0 0 0 1 0 1 1 0 0 1 1 0 0 0 0 1 0 0 1 1 0 0 0 0 0 1 0 1 1
    1       0    0 0 0 1 1 0 1 1 1 0 0 1 0 1 0 0 1 0 1 0 1 1 1 1 1 1 0 0 0 0 0 1 0 0 1 0 1 1 1 1 0 1 1 1 1 1 1 0 1 0 0
    1       1    0 1 0 1 1 0 1 0 0 0 0 1 1 1 0 0 1 0 0 1 1 0 0 1 1
   25       2    0 1 0 0 1 0 0 1 0 1 0 0 1 0 1 1 1 1 1 1 0 0 0 0 0 1 0 1 1 0 0 1 1 0 0 0 0 1 0 0 1 1 0 0 0 0 0 1 0 1 1
    1       0    0 0 0 1 1 0 1 1 1 1 0 1 1 1 0 0 1 1 1 0 1 1 1 0 1 1 0 0 0 0 0 0 0 0 0 0 1 1 1 1 0 1 1 1 1 1 1 0 1 0 0
    1       1    0 1 0 1 1 0 1 0 0 0 0 1 0 1 0 0 1 0 0 1 1 0 0 1 1
   26       2    0 1 0 0 1 0 0 1 0 1 0 0 1 1 1 1 1 1 1 1 0 0 1 0 0 1 0 1 1 1 0 1 1 0 0 1 0 1 0 0 1 1 0 0 0 0 0 1 0 1 1
    1       0    0 0 0 1 1 0 1 1 1 1 0 1 0 1 0 0 1 1 1 0 1 1 1 1 1 1 0 0 0 0 0 1 0 0 0 0 1 1 1 1 0 1 1 1 1 1 1 0 1 0 0
    1       1    0 1 0 1 1 0 1 0 0 0 0 1 0 1 0 0 1 0 0 1 1 0 0 1 1
   27       2    0 1 0 0 1 0 0 1 0 1 0 0 1 1 1 1 1 1 1 1 0 0 0 0 0 1 0 1 1 0 0 1 1 0 0 0 0 1 0 0 1 1 0 0 0 0 0 1 0 1 1
    1       0    0 0 0 1 0 0 1 1 1 1 0 1 1 1 0 0 1 1 1 1 1 1 1 1 1 1 0 0 0 0 0 0 0 0 0 0 1 1 0 1 0 1 1 1 1 1 1 0 1 0 0
    1       1    0 1 0 1 1 0 1 0 0 0 0 1 0 1 0 0 1 1 0 1 1 0 0 1 1
   28       2    0 1 0 0 1 0 0 1 0 1 0 0 1 1 1 1 1 1 1 1 0 0 0 0 0 1 0 1 1 0 0 1 1 0 0 0 0 1 0 0 1 1 0 0 0 0 0 1 0 1 1
    1       0    0 0 0 1 1 0 1 1 1 1 0 1 1 1 0 0 1 1 1 1 1 1 1 1 1 1 0 0 0 0 0 0 0 0 0 0 1 1 1 1 0 1 1 1 1 1 1 0 1 0 0
    1       1    0 1 0 1 1 0 1 0 0 0 0 1 0 0 0 0 1 0 0 1 1 0 0 1 1
   29       2    0 1 0 0 1 0 0 1 0 1 0 0 1 1 1 1 1 1 1 1 1 0 0 0 0 1 0 1 1 0 0 1 1 0 0 0 0 1 0 0 1 1 0 0 0 0 0 1 0 1 1
    1       0    0 0 0 1 0 0 1 1 1 1 0 1 1 1 0 0 1 1 1 1 1 1 1 1 1 1 0 0 0 0 0 0 0 0 0 0 1 1 1 1 0 1 1 1 1 1 1 0 1 0 0
    1       1    0 1 0 1 1 0 1 0 0 0 0 1 0 0 0 0 1 0 0 1 1 0 0 1 1
   30       2    0 1 0 0 1 0 0 1 0 1 0 0 1 1 1 1 1 1 1 1 0 0 0 1 0 1 0 1 1 0 0 1 1 0 0 0 0 1 0 0 1 1 0 0 0 0 0 1 0 1 1
    1       0    0 0 0 1 0 0 1 1 1 1 0 1 1 1 0 0 1 1 1 1 1 1 1 1 1 1 0 0 0 0 0 0 0 0 0 0 1 1 1 1 0 1 1 1 1 1 1 0 1 0 0
    1       1    0 1 0 1 1 0 1 0 0 0 0 1 0 1 0 0 1 1 0 1 1 0 0 1 1
   31       2    0 1 0 0 1 0 0 1 0 1 0 0 1 1 1 1 1 1 1 1 0 1 0 0 0 1 0 1 1 0 1 1 0 0 0 0 1 1 0 0 1 1 0 0 0 0 0 1 0 1 1
    1       0    0 0 0 1 1 0 1 0 1 1 0 1 1 1 0 0 1 1 1 0 1 1 1 1 1 1 0 0 0 0 0 0 0 0 0 0 1 1 1 1 1 1 1 1 1 1 1 0 1 0 0
    1       1    0 1 0 1 1 0 1 0 0 0 0 1 0 1 0 0 1 0 0 1 1 0 0 1 1
   32       2    0 1 0 0 1 0 0 1 0 1 0 1 0 1 1 1 1 1 1 1 0 0 0 0 0 1 0 1 1 0 0 1 1 0 1 0 0 1 0 0 1 1 0 0 0 0 0 1 0 1 1
    1       0    0 0 0 1 1 0 1 0 1 0 0 0 1 1 0 0 1 0 1 0 1 1 1 1 1 1 0 0 0 0 0 1 0 0 0 0 1 1 1 0 1 1 1 1 1 1 1 0 1 0 0
    1       1    0 1 0 1 1 0 1 0 0 0 0 1 0 1 0 0 1 0 0 1 1 0 0 1 1
   33       2    0 1 0 0 1 0 0 1 0 1 0 1 1 1 1 1 1 1 1 1 1 0 0 0 1 1 0 1 1 0 0 0 1 0 1 0 0 1 0 0 1 1 0 0 0 0 0 1 0 1 1
    1       0    0 0 0 1 1 0 1 1 0 1 0 1 1 1 0 0 1 0 1 0 1 1 1 1 1 1 0 0 0 0 0 1 0 0 0 0 1 1 1 1 0 1 1 1 1 1 1 0 1 0 0
    1       1    0 1 0 1 1 0 1 0 0 0 0 1 1 1 1 0 1 0 0 1 1 0 0 1 1
   34       2    0 1 0 0 1 0 0 1 0 1 0 0 0 1 1 1 1 1 1 1 0 0 0 0 0 1 0 1 1 0 0 1 1 0 1 0 0 1 0 0 1 1 0 0 0 0 0 1 0 1 1
    1       0    0 0 0 1 1 0 1 0 1 1 0 1 1 1 0 0 1 1 1 0 1 1 1 1 1 1 0 0 0 0 0 0 0 0 0 0 1 1 1 1 0 1 1 1 1 1 1 0 1 0 0
    1       1    0 1 0 1 1 0 1 0 0 0 0 1 0 1 0 0 1 0 0 1 1 0 0 1 1
   35       2    0 1 0 0 1 0 0 1 0 1 0 0 0 1 1 1 1 1 1 1 0 0 0 0 0 1 0 1 1 0 0 1 1 0 0 0 0 1 0 0 1 1 0 0 0 0 0 1 0 1 1
    1       0    0 0 0 1 1 1 1 1 1 0 0 1 1 1 0 0 1 0 1 1 1 1 1 1 1 1 0 0 0 0 0 1 0 0 0 0 1 1 0 1 1 1 1 1 1 1 1 0 1 0 0
    1       1    0 1 0 1 1 0 1 0 0 0 0 1 0 1 0 0 0 1 0 1 1 0 0 1 1
   36       2    0 1 0 0 1 0 0 1 0 1 0 1 1 1 1 1 1 1 1 1 0 0 0 0 0 1 0 1 1 0 0 1 1 0 0 0 0 1 0 0 1 1 0 0 0 0 0 1 0 1 1
    1       0    0 0 0 1 0 0 1 1 1 1 0 1 1 1 0 0 1 1 1 0 1 1 1 1 1 1 0 0 0 0 0 0 0 0 0 0 1 1 1 1 1 1 1 1 1 1 1 0 1 0 0
    1       1    0 1 0 1 1 0 1 0 0 0 0 1 0 1 0 0 1 0 0 1 1 0 0 1 1
   37       2    0 1 0 0 1 0 0 1 0 1 0 1 1 1 1 1 1 1 1 0 0 0 0 0 0 1 0 1 1 0 0 1 1 0 0 0 0 1 0 0 1 1 0 0 0 0 0 1 0 1 1
    1       0    0 0 0 1 1 0 1 1 1 1 0 1 1 1 0 0 1 1 1 1 1 1 1 1 1 1 0 0 0 0 0 0 0 0 0 0 1 1 1 1 0 1 1 1 1 1 1 0 1 0 0
    1       1    0 1 0 1 1 0 1 0 0 0 0 1 0 1 1 0 1 0 0 1 1 0 0 1 1
   38       2    0 1 0 0 1 0 0 1 0 1 0 1 0 1 1 1 1 1 1 1 0 0 0 0 0 1 0 1 1 0 0 1 1 0 0 0 0 1 0 0 1 1 0 0 0 0 0 1 0 1 1
    1       0    0 0 0 1 1 0 1 1 1 0 0 1 1 1 0 0 1 0 1 0 1 1 1 1 1 1 0 0 0 0 0 1 1 0 0 0 0 1 1 1 0 1 1 1 1 1 1 0 1 0 0
    1       1    0 1 0 1 1 0 1 0 0 0 0 1 0 0 1 0 1 0 0 1 1 0 0 1 1
   39       2    0 1 0 0 1 0 0 1 0 1 0 0 1 1 1 1 1 1 1 1 0 0 0 0 0 1 0 1 1 0 0 1 1 0 0 0 0 1 0 0 1 1 0 0 0 0 0 1 0 1 1
    1       0    0 0 0 1 0 0 1 0 1 1 0 1 1 1 0 0 1 1 1 0 1 1 1 1 1 1 0 0 0 0 0 1 0 0 0 0 1 1 0 1 0 1 1 1 1 1 1 0 1 0 0
    1       1    0 1 0 1 1 0 1 0 0 0 0 1 0 1 0 0 1 0 0 1 1 0 0 1 1
   40       2    0 1 0 0 1 0 0 1 0 1 0 1 1 1 1 1 1 1 1 1 0 0 0 1 0 1 0 1 1 0 0 1 1 0 0 0 0 1 0 0 1 1 0 0 0 0 0 1 0 1 1
    1       0    0 0 0 1 0 0 1 1 1 1 0 1 1 1 0 0 1 1 1 0 1 1 1 1 1 1 0 0 0 0 0 0 0 0 0 0 1 1 1 1 0 1 1 1 1 1 1 0 1 0 0
    1       1    0 1 0 1 1 0 1 0 0 0 0 1 0 1 0 0 1 0 0 1 1 0 0 1 1
   41       2    0 1 0 0 1 0 0 1 0 1 0 0 0 1 1 1 1 1 1 1 0 0 0 1 0 1 0 1 1 0 0 1 1 0 0 1 0 1 0 0 1 1 0 0 0 0 0 1 0 1 1
    1       0    0 0 0 1 0 0 1 1 1 0 0 1 0 1 0 1 1 0 1 1 1 1 1 1 1 1 0 0 0 0 0 1 0 1 0 0 1 1 1 1 0 1 1 1 1 1 1 0 1 0 0
    1       1    0 1 0 1 1 0 1 0 0 0 0 1 0 0 0 0 1 1 0 1 1 0 0 1 1
   42       2    0 1 0 0 1 0 0 1 0 1 0 1 0 1 1 1 1 1 1 1 0 0 1 0 0 1 0 1 1 0 0 1 1 0 0 0 0 1 0 0 1 1 0 0 0 0 0 1 0 1 1
    1       0    0 0 0 1 1 0 1 1 1 0 0 1 1 1 0 0 1 0 1 0 1 1 1 1 1 1 0 0 0 0 0 0 0 0 0 0 1 1 1 1 1 1 1 1 1 1 1 0 1 0 0
    1       1    0 1 0 1 1 0 1 0 0 0 0 1 0 1 0 0 1 0 0 1 1 0 0 1 1
   43       2    0 1 0 0 1 0 0 1 0 1 0 1 0 1 1 1 1 1 1 1 0 0 0 0 0 1 0 1 1 0 0 1 1 0 0 0 0 1 0 0 1 1 0 0 0 0 0 1 0 1 1
    1       0    0 0 0 1 1 0 1 1 1 0 0 1 1 1 0 0 1 0 1 0 1 1 1 1 1 1 0 0 0 0 0 0 1 0 0 0 1 1 1 1 1 1 1 1 1 1 1 0 1 0 0
    1       1    0 1 0 1 1 0 1 0 0 0 0 1 0 1 0 0 1 0 0 1 1 0 0 1 1
   44       2    0 1 0 0 1 0 0 1 0 1 0 1 0 1 1 1 1 1 1 1 0 0 0 0 0 1 0 1 1 0 0 1 1 0 0 0 0 1 0 0 1 1 0 0 0 0 0 1 0 1 1
    1       0    0 0 0 1 1 0 1 0 1 0 0 1 1 1 0 0 1 0 1 0 1 1 1 1 1 1 0 0 0 0 0 0 0 0 0 0 0 0 1 1 1 1 1 1 1 1 1 0 1 0 0
    1       1    0 1 0 1 1 0 1 0 0 0 0 1 0 1 0 0 1 0 0 1 1 0 0 1 1
   45       2    0 1 0 0 1 0 0 1 0 1 0 0 1 1 1 1 1 1 1 1 0 0 0 0 0 1 0 1 1 0 0 1 1 0 0 0 0 1 0 0 1 1 0 0 0 0 0 1 0 1 1
    1       0    0 0 0 1 1 0 1 0 1 1 0 1 1 1 0 0 1 1 1 0 1 1 1 1 1 1 0 0 0 0 0 0 0 0 0 0 1 1 1 1 0 1 1 1 1 1 1 0 1 0 0
    1       1    0 1 0 1 1 0 1 0 0 0 0 1 0 1 0 0 1 0 0 1 1 0 0 1 1
   46       2    0 1 0 0 1 0 0 1 0 1 0 0 1 1 1 1 1 1 1 1 0 0 0 0 0 1 0 1 1 0 0 1 1 1 0 0 0 1 0 0 1 1 0 0 0 0 0 1 0 1 1
    1       0    0 0 0 1 1 0 1 1 1 1 0 1 1 1 0 0 1 0 1 0 1 1 1 1 1 1 0 0 0 0 0 0 0 0 0 0 1 1 1 1 0 1 1 1 1 1 1 0 1 0 0
    1       1    0 1 0 1 1 0 1 0 0 0 0 1 0 1 0 0 1 1 0 1 1 0 0 1 1
   47       2    0 1 0 0 1 0 0 1 0 1 0 0 1 1 1 1 1 1 1 1 1 0 0 0 0 1 0 1 1 0 0 1 1 0 0 0 0 1 0 0 1 1 0 0 0 0 0 1 0 1 1
    1       0    0 0 0 1 0 0 1 1 1 0 0 0 1 1 0 0 1 0 1 0 1 1 1 1 1 1 0 0 0 0 0 1 0 0 0 0 1 1 1 1 1 1 1 1 1 1 1 0 1 0 0
    1       1    0 1 0 1 1 0 1 0 0 0 0 1 0 1 0 0 1 0 0 1 1 0 0 1 1
   48       2    0 1 0 0 1 0 0 1 0 1 0 1 1 1 1 1 1 1 1 1 0 1 0 0 0 0 0 1 1 0 0 1 1 0 0 0 0 1 0 0 1 1 0 0 0 0 0 1 0 1 1
    1       0    0 0 0 1 0 0 1 1 0 0 0 1 1 1 0 1 1 0 1 0 1 1 0 1 1 1 0 0 0 0 0 1 0 1 0 0 1 1 1 1 1 1 1 1 1 1 1 0 1 0 0
    1       1    0 1 0 1 1 0 1 0 0 0 0 1 0 1 0 0 1 0 0 1 1 0 0 1 1
   49       2    0 1 0 0 1 0 0 1 0 1 0 1 0 1 1 1 1 1 1 1 0 0 0 0 0 1 0 1 1 0 0 1 1 0 1 1 0 1 0 0 1 1 0 0 0 0 0 1 0 1 1
    1       0    0 0 0 1 1 0 1 0 1 0 0 0 1 1 0 0 1 0 1 0 1 1 1 1 1 1 0 0 0 0 0 0 0 0 0 0 1 0 1 1 1 1 1 1 1 1 1 0 1 0 0
    1       1    0 1 0 1 1 0 1 0 0 0 0 1 0 1 0 0 1 0 0 1 1 0 0 1 1
   50       2    0 1 0 0 1 0 0 1 0 1 0 1 1 1 1 1 1 1 1 1 0 0 0 0 0 1 0 1 1 0 0 1 1 0 0 0 0 1 0 0 1 1 0 0 0 0 0 1 0 1 1
    1       0    0 0 0 1 1 0 1 1 0 1 0 1 1 1 0 0 1 0 1 0 1 1 1 1 1 1 0 0 0 0 0 1 0 0 0 0 1 1 1 1 0 1 1 1 1 1 1 0 1 0 0
    1       1    0 1 0 1 1 0 1 0 0 0 0 1 1 1 0 0 1 0 0 1 1 0 0 1 1
   51       2    0 1 0 0 1 0 0 1 0 1 0 0 1 1 1 1 1 1 1 1 0 0 0 1 0 1 0 1 1 0 0 1 1 0 0 1 0 1 0 0 1 1 0 0 0 0 0 1 0 1 1
    1       0    0 0 0 1 0 0 1 1 1 1 0 1 1 1 0 1 1 1 1 1 1 1 1 1 1 1 0 0 0 0 0 0 0 0 0 1 1 0 1 1 0 1 1 1 1 1 1 0 1 0 0
    1       1    0 1 0 1 1 0 1 0 0 0 0 1 0 0 0 0 1 1 0 1 1 0 0 1 1
   52       2    0 1 0 0 1 0 0 1 0 1 0 1 1 1 1 1 1 1 1 1 0 0 0 1 0 1 0 1 1 0 0 1 1 0 0 0 0 1 0 0 1 1 0 0 0 0 0 1 0 1 1
    1       0    0 0 0 1 0 0 1 1 1 1 0 1 1 1 0 0 1 1 1 0 1 1 1 1 1 1 0 0 0 0 0 0 0 0 0 0 1 1 1 1 0 1 1 1 1 1 1 0 1 0 0
    1       1    0 1 0 1 1 0 1 0 0 0 0 1 0 1 0 0 1 0 0 1 1 0 0 1 1
   53       2    0 1 0 0 1 0 0 1 0 1 0 0 1 1 0 1 1 1 1 1 0 0 0 0 1 1 0 1 1 0 0 1 1 0 0 0 0 1 0 0 1 1 0 0 0 0 0 1 0 1 1
    1       1    0 0 0 1 0 0 1 1 1 1 0 1 1 1 0 0 1 0 1 0 1 1 1 0 1 1 0 0 0 0 0 1 0 0 0 0 1 1 1 1 1 1 1 1 1 1 1 0 1 0 1
    1       1    0 1 0 0 1 0 1 0 0 0 0 0 1 1 0 0 1 1 0 1 1 0 0 1 1
   54       2    0 1 0 0 1 0 0 1 0 1 0 0 1 1 1 1 1 1 1 1 0 0 0 0 0 1 0 1 1 0 0 1 1 0 0 0 0 1 0 0 1 1 0 0 0 0 1 1 0 1 1
    1       1    0 0 0 1 1 0 1 1 1 1 0 1 1 1 0 0 1 1 1 0 1 1 1 1 1 1 0 0 0 0 0 1 0 0 0 0 1 1 1 1 0 1 1 1 1 1 0 0 1 0 0
    1       1    0 1 0 1 1 0 1 0 0 0 0 0 0 1 0 0 1 0 0 1 1 0 0 1 1
   8800000.00000000        1618033.00000000       0.000000000000000E+000
  1.136363636363636E-007   6267338.00000000        2540149.00000000     
           1          54          30
   7098322.00000000        6105966.00000000        5687630.00000000     
   1951790.00000000        4603246.00000000        3643054.00000000     
   7249818.00000000        846003.000000000        1901500.00000000     
   4172585.00000000        1675936.00000000        4623589.00000000     
   5778606.00000000        5712430.00000000        4491974.00000000     
   2450503.00000000        502307.000000000        4347165.00000000     
   8212379.00000000        4647394.00000000        3984431.00000000     
   1279698.00000000        7649313.00000000        985002.000000000     
   5336908.00000000        3974624.00000000        7697456.00000000     
   5850052.00000000        1773462.00000000        480354.000000000     
   1163453.00000000        3359182.00000000        7556488.00000000     
   2197419.00000000        6292442.00000000        5269027.00000000     
   3161033.00000000        6066640.00000000        3680543.00000000     
   5640125.00000000        7400415.00000000        2878025.00000000     
   1594362.00000000        5165127.00000000        2242698.00000000     
   93311.0000000000        8222765.00000000        6470721.00000000     
   8550873.00000000        6479102.00000000        7982248.00000000     
   8612809.00000000        8117702.00000000        6267338.00000000     
   2705667.00000000     
   8800000.00000000        1618033.00000000       0.000000000000000E+000
  1.136363636363636E-007   3301477.00000000        2129117.00000000     
           1          54          30
   7410286.00000000        7422965.00000000        5803974.00000000     
   3007510.00000000        8440024.00000000        231104.000000000     
   5743854.00000000        7640400.00000000        5086005.00000000     
   5019837.00000000        8539927.00000000        6362852.00000000     
   3443879.00000000        7328556.00000000        3004585.00000000     
   6461109.00000000        732301.000000000        3476451.00000000     
   2222369.00000000        1811451.00000000        6517574.00000000     
   6995222.00000000        6179628.00000000        891096.000000000     
   7489468.00000000        4463373.00000000        1218643.00000000     
   1658320.00000000        7394221.00000000        1842408.00000000     
   6641547.00000000        5989013.00000000        5793959.00000000     
   6775649.00000000        3205137.00000000        2771.00000000000     
   5061294.00000000        3789305.00000000        5030549.00000000     
   1601769.00000000        4556730.00000000        1533159.00000000     
   2967516.00000000        2143769.00000000        8029084.00000000     
   2805223.00000000        4595256.00000000        6372451.00000000     
   288828.000000000        6952520.00000000        2164435.00000000     
   6039156.00000000        3293177.00000000        3301477.00000000     
   4447116.00000000     
   8800000.00000000        1618033.00000000       0.000000000000000E+000
  1.136363636363636E-007   172635.000000000        8322469.00000000     
           1           5          36
   4860294.00000000        6704023.00000000        2939294.00000000     
   4620486.00000000        172635.000000000        6699236.00000000     
   6808177.00000000        8325331.00000000        3634883.00000000     
   1858005.00000000        7436630.00000000        4250529.00000000     
   5983001.00000000        8617489.00000000        8517347.00000000     
   3459413.00000000        1429953.00000000        8461803.00000000     
   3355896.00000000        6727884.00000000        2391253.00000000     
   6665922.00000000        2246722.00000000        1811145.00000000     
   4187297.00000000        3053462.00000000        8246780.00000000     
   5954974.00000000        8412872.00000000        3429747.00000000     
   3072638.00000000        7298310.00000000        7581099.00000000     
   1114681.00000000        4166394.00000000        3236081.00000000     
   3545776.00000000        3980942.00000000        5738360.00000000     
   958103.000000000        4853543.00000000        7382161.00000000     
   1765383.00000000        1176727.00000000        5721276.00000000     
   5190417.00000000        5973240.00000000        3092569.00000000     
   3122107.00000000        4632440.00000000        3974956.00000000     
   986572.000000000        5172135.00000000        5827646.00000000     
   4184088.00000000     
