          58          54   1.00000000000000     
    1       2    0 1 0 1 0 0 0 1 0 0 1 0 0 1 1 1 1 0 1 1 1 0 1 1 1 1 1 1 0 0 1 0 0 1 1 1 0 0 1 0 0 1 0 0 1 0 0 1 1 1 1
    1       1    0 0 0 0 1 0 0 0 1 1 0 1 0 0 0 0 0 1 1 1 1 1 0 1 1 1 0 0 0 0 0 1 0 0 1 1 1 1 1 0 1 1 1 1 1 1 1 1 1 1 0
    1       1    0 1 1 1 1 0 0 0 0 0 0 0 0 0 0 1 1 0 0 1 1 0 0 1 1
    2       2    0 1 0 1 0 0 0 1 0 0 1 0 0 1 1 1 1 0 1 1 1 0 1 1 1 1 1 1 1 0 1 0 0 1 1 0 0 0 1 0 0 1 0 0 1 0 0 1 1 1 1
    1       1    0 0 0 0 1 0 1 0 1 1 0 1 0 0 1 0 0 1 1 1 1 1 0 1 1 1 0 0 0 0 0 1 0 0 1 1 1 1 1 0 1 1 1 1 1 1 1 1 1 1 0
    1       1    0 1 1 1 1 0 0 0 0 0 0 0 0 0 0 1 1 1 0 1 1 0 0 1 1
    3       2    0 1 0 1 0 0 0 1 0 0 1 0 0 1 0 1 0 0 1 1 0 1 1 1 0 1 1 1 0 1 1 0 0 1 1 0 0 0 1 0 0 1 0 0 1 0 0 1 1 1 1
    1       1    0 0 0 0 1 0 0 0 1 1 0 1 0 0 0 1 0 0 1 1 1 0 0 1 1 1 0 0 0 0 0 1 0 0 1 1 1 1 1 1 1 1 1 1 1 1 1 1 1 1 0
    1       1    0 1 1 1 1 0 0 0 0 0 0 0 1 0 0 1 1 0 0 1 1 0 0 1 1
    4       2    0 1 0 1 0 0 0 1 0 0 1 0 0 1 0 1 1 0 1 1 0 0 1 1 0 1 1 1 1 1 1 0 0 1 1 0 1 0 1 0 0 1 0 0 1 0 0 1 1 1 1
    1       1    0 0 0 0 1 0 0 0 1 1 0 1 0 0 0 0 0 0 1 1 1 0 0 1 1 1 0 0 0 0 0 1 0 1 1 1 1 1 1 0 1 1 1 1 1 1 1 1 1 1 0
    1       1    0 1 1 1 1 0 0 0 0 0 0 0 1 0 0 1 0 0 0 1 1 0 0 1 1
    5       2    0 1 0 1 0 0 0 1 0 0 1 0 0 1 1 1 0 0 1 1 1 0 1 1 1 1 1 1 0 0 1 0 1 1 1 0 0 0 1 0 0 1 0 0 1 0 0 1 1 1 1
    1       1    0 0 0 0 1 0 0 0 1 1 0 1 0 1 0 0 0 1 1 1 1 1 0 1 1 1 0 0 0 0 0 1 0 0 1 1 1 1 1 0 1 1 1 1 1 1 1 1 1 1 0
    1       1    0 1 1 1 1 0 0 0 0 0 0 1 0 0 0 1 1 0 0 1 1 0 0 1 1
    6       2    0 1 0 1 0 0 0 1 0 0 1 0 0 1 0 1 0 0 1 1 0 1 1 1 0 1 1 1 1 1 1 0 0 1 1 0 0 0 1 0 0 1 0 0 1 0 0 1 1 1 1
    1       1    0 0 0 0 1 0 0 0 1 1 0 1 0 0 0 1 0 0 1 1 1 0 0 1 1 1 0 0 0 0 0 1 1 0 1 1 1 1 1 0 0 1 1 1 1 1 1 1 1 1 0
    1       1    0 1 1 1 1 0 0 0 0 0 0 0 1 0 0 1 0 0 0 1 1 0 0 1 1
    7       2    0 1 0 1 0 0 0 1 0 0 1 0 0 1 1 1 0 0 1 1 0 0 1 1 1 1 1 1 0 0 1 0 1 1 1 0 0 0 1 0 0 1 0 0 1 0 0 1 1 1 1
    1       1    0 0 0 0 1 0 0 0 1 1 0 1 0 0 0 0 0 0 1 1 1 1 0 1 1 1 0 0 0 0 0 1 1 0 1 1 1 1 1 0 1 1 1 1 1 1 1 1 1 1 0
    1       1    0 1 1 1 1 0 0 0 0 0 0 1 0 0 0 1 1 0 0 1 1 0 0 1 1
    8       2    0 1 0 1 0 0 0 1 0 0 1 0 0 1 0 1 1 0 1 1 1 0 1 1 1 1 1 1 1 0 1 0 0 1 1 1 0 0 1 0 0 1 0 0 1 0 0 1 1 1 1
    1       1    0 0 0 0 1 0 0 0 1 1 0 1 0 0 0 0 0 1 0 1 1 1 0 1 1 1 0 0 0 0 0 1 0 0 1 1 1 1 1 0 1 1 1 1 1 1 1 1 1 1 0
    1       1    0 1 1 1 1 0 0 0 0 0 0 0 0 0 0 1 1 0 0 1 1 0 0 1 1
    9       2    0 1 0 1 0 0 0 1 0 0 1 0 0 1 1 1 0 0 1 1 1 0 1 1 1 1 1 1 1 0 1 0 1 1 1 0 0 0 1 0 0 1 0 0 1 0 0 1 1 1 1
    1       1    0 0 0 0 1 0 0 0 1 1 0 1 0 0 0 0 0 1 1 1 1 1 0 1 1 1 0 0 0 0 0 1 0 0 0 1 1 1 1 0 1 1 1 1 1 1 1 1 1 1 0
    1       1    0 1 1 1 1 0 0 0 0 0 0 1 0 0 0 1 1 1 0 1 1 0 0 1 1
   10       2    0 1 0 1 0 0 0 1 0 0 1 0 0 1 0 1 1 0 1 1 1 0 0 1 0 1 1 1 1 1 1 0 0 1 1 0 1 0 1 0 0 1 0 0 1 0 0 1 1 1 1
    1       1    0 0 0 0 1 0 0 0 1 1 0 1 1 0 0 0 0 1 1 1 1 0 0 1 1 1 0 0 0 0 0 1 0 0 1 1 1 1 1 0 1 1 1 1 1 1 1 1 1 1 0
    1       1    0 1 1 1 1 0 0 0 0 0 0 0 1 0 0 1 0 0 0 1 1 0 0 1 1
   11       2    0 1 0 1 0 0 0 1 0 0 1 0 0 1 0 1 1 0 1 1 0 1 1 1 1 1 1 1 1 0 1 0 0 1 1 0 0 0 1 0 0 1 0 0 1 0 0 1 1 1 1
    1       1    0 0 0 0 1 0 1 0 1 1 0 1 0 0 0 1 0 1 1 1 1 1 0 1 1 1 0 0 0 0 0 1 1 0 1 1 1 1 1 0 0 1 1 1 1 1 1 1 1 1 0
    1       1    0 1 1 1 1 0 0 0 0 0 0 0 1 0 0 1 1 0 0 1 1 0 0 1 1
   12       2    0 1 0 1 0 0 0 1 0 0 1 0 0 1 1 1 1 0 1 1 1 0 1 1 0 1 1 1 1 0 1 0 0 1 1 0 0 0 1 0 0 1 0 0 1 0 0 1 1 1 1
    1       1    0 0 0 0 1 0 0 1 1 1 0 1 0 0 0 0 0 1 1 1 1 0 0 1 1 1 0 0 0 0 0 1 0 0 1 1 1 1 1 0 1 1 1 1 1 1 1 1 1 1 0
    1       1    0 1 1 1 1 0 0 0 0 0 0 0 1 0 0 0 1 1 0 1 1 0 0 1 1
   13       2    0 1 0 0 0 0 0 1 0 0 1 0 0 1 1 1 1 0 1 1 1 0 1 0 1 1 1 1 1 0 1 0 0 1 1 0 0 0 1 0 0 1 0 0 1 0 0 1 1 1 1
    1       1    0 0 0 0 1 0 0 0 1 1 0 1 0 0 0 0 0 1 1 1 1 1 0 1 1 1 0 0 0 0 0 1 0 0 1 1 1 1 1 0 1 1 1 1 1 1 1 1 1 1 1
    1       1    0 1 1 1 1 0 0 0 0 0 0 0 0 0 0 1 1 0 0 1 1 0 0 1 1
   14       2    0 1 0 0 0 0 0 1 0 0 1 0 1 0 0 0 0 0 0 0 1 1 1 0 1 1 1 0 0 0 1 0 0 0 0 0 0 0 1 0 1 0 1 0 0 0 0 1 1 1 1
    1       0    1 0 0 0 0 0 0 0 0 0 1 0 1 1 0 1 0 1 1 1 1 1 0 1 1 1 0 0 0 0 0 1 0 0 1 1 1 1 1 0 0 1 1 1 1 0 1 1 0 0 1
    1       1    0 1 1 1 1 0 0 1 1 0 0 1 1 0 1 1 1 0 0 1 1 0 0 1 1
   15       2    0 1 0 0 0 0 0 1 0 0 1 0 0 1 0 1 0 0 1 1 0 0 1 1 0 1 0 1 0 0 0 0 1 1 1 0 1 0 1 0 1 1 0 1 0 0 1 1 1 1 0
    1       1    0 0 0 0 1 1 0 0 0 1 0 1 0 0 0 0 0 0 1 0 1 1 0 1 1 1 0 0 0 0 0 1 1 0 0 1 1 1 1 1 1 1 1 1 1 1 1 1 0 1 0
    1       1    0 1 1 1 1 0 0 0 0 0 0 1 1 0 0 1 1 0 0 1 1 0 0 1 1
   16       2    0 1 0 0 0 0 0 1 0 0 1 0 0 1 0 1 0 0 1 1 0 0 1 1 0 1 0 1 0 0 0 0 1 1 1 0 1 0 1 0 1 1 0 1 0 0 1 1 1 1 0
    1       1    0 0 0 0 1 1 0 0 0 1 0 1 0 0 0 0 0 0 1 0 1 1 0 1 1 1 0 0 0 0 0 1 1 0 0 1 1 1 1 1 1 1 1 1 1 1 1 1 0 1 0
    1       1    0 1 1 1 1 0 0 0 0 0 0 1 1 0 0 1 1 0 0 1 1 0 0 1 1
   17       2    0 1 0 0 0 0 0 1 0 0 1 0 0 1 0 1 0 0 1 1 0 0 1 1 0 1 0 1 0 0 0 0 1 1 1 0 1 0 1 0 1 1 0 1 0 0 1 1 1 1 0
    1       1    0 0 0 0 1 1 0 0 0 1 0 1 0 0 0 0 0 0 1 0 1 1 0 1 1 1 0 0 0 0 0 1 1 0 0 1 1 1 1 1 1 1 1 1 1 1 1 1 0 1 0
    1       1    0 1 1 1 1 0 0 0 0 0 0 1 1 0 0 1 1 0 0 1 1 0 0 1 1
   18       2    0 1 0 1 0 1 0 1 0 0 1 0 0 1 0 1 1 0 1 1 0 0 1 1 1 1 1 1 0 0 1 0 1 1 1 0 1 0 1 0 0 1 0 0 1 0 0 1 1 1 1
    1       1    0 0 0 1 1 0 0 0 1 1 0 1 0 0 0 0 0 0 1 1 1 1 0 1 1 1 0 0 0 0 0 1 0 0 1 1 1 1 1 0 1 1 1 1 1 1 1 1 1 1 0
    1       1    0 1 1 1 1 0 0 0 0 0 0 1 1 0 0 1 0 0 0 1 1 0 0 1 1
   19       2    0 1 0 1 0 0 0 1 0 0 1 0 0 1 0 1 1 0 1 1 0 0 1 1 1 1 1 1 1 0 1 0 1 1 1 0 1 0 1 0 0 1 0 0 1 0 0 1 1 1 1
    1       1    0 0 0 1 1 0 0 0 1 1 0 1 0 0 0 0 0 0 1 0 1 1 0 1 1 1 0 0 0 0 0 1 0 0 1 1 1 1 1 0 1 1 1 1 1 1 1 1 1 1 0
    1       1    0 1 1 1 1 0 0 0 0 0 0 0 0 0 0 1 1 0 0 1 1 0 0 1 1
   20       2    0 1 0 1 0 0 0 1 0 0 1 0 0 1 0 1 1 0 1 1 1 0 1 1 1 1 1 1 1 0 1 0 0 1 1 0 0 0 1 0 0 1 0 0 1 0 0 1 1 1 1
    1       1    0 0 0 0 1 0 0 0 1 1 0 1 0 0 0 0 0 1 1 1 1 1 0 1 1 1 0 0 0 0 0 1 0 0 1 1 1 1 1 0 1 1 1 1 1 1 1 1 1 1 1
    1       1    0 1 1 1 1 0 0 0 0 0 0 0 0 0 0 1 1 0 0 1 1 0 0 1 1
   21       2    0 1 0 1 0 0 0 1 0 0 1 0 0 1 0 1 1 0 1 1 1 0 1 1 1 1 1 1 1 0 1 0 0 1 1 0 0 0 1 0 0 1 0 0 1 0 0 1 1 1 1
    1       1    0 0 0 0 1 0 0 0 1 1 0 1 0 0 0 0 0 1 1 1 1 1 0 1 1 1 0 0 0 0 0 0 0 0 1 1 1 1 1 1 1 1 1 1 1 1 1 1 1 1 1
    1       1    0 1 1 1 1 0 0 0 0 0 0 0 0 0 0 1 1 0 0 1 1 0 0 1 1
   22       2    0 1 0 1 0 0 0 1 0 0 1 0 0 1 0 1 1 0 1 1 1 0 1 1 1 1 1 1 1 0 1 0 0 1 1 0 0 0 1 0 0 1 0 0 1 0 0 1 1 1 1
    1       1    0 0 0 0 1 0 0 0 1 1 0 1 0 0 0 0 0 1 1 1 1 1 0 1 1 1 0 0 0 0 0 1 0 0 1 1 1 1 1 0 1 1 1 1 1 1 1 1 1 1 1
    1       1    0 1 1 1 1 0 0 0 0 0 0 0 0 0 0 1 1 0 0 1 1 0 0 1 1
   23       2    0 1 0 1 0 0 0 1 0 0 1 0 0 1 0 1 1 0 1 1 1 0 1 1 1 1 1 1 1 0 1 0 0 1 1 0 0 0 1 0 0 1 0 0 1 0 0 1 1 1 1
    1       1    0 0 0 0 1 0 0 0 1 1 0 1 0 0 0 0 0 1 1 1 1 1 0 1 1 1 0 0 0 0 0 1 0 0 1 1 1 1 1 0 1 1 1 1 1 1 1 1 1 1 1
    1       1    0 1 1 1 1 0 0 0 0 0 0 0 0 0 0 1 1 0 0 1 1 0 0 1 1
   24       2    0 1 0 1 0 0 0 1 0 0 1 0 0 1 1 1 1 0 1 1 1 0 1 1 1 1 1 1 1 0 1 0 0 1 1 0 0 0 1 0 0 1 0 0 1 0 0 1 1 1 1
    1       1    0 0 0 0 1 0 0 0 1 1 0 1 0 0 0 0 0 1 1 1 1 1 0 1 1 1 0 0 0 0 0 1 0 0 1 1 1 1 1 1 1 1 1 1 1 1 1 1 1 1 1
    1       1    0 1 1 1 1 0 0 0 0 0 0 0 0 0 0 1 1 0 0 1 1 0 0 1 1
   25       2    0 1 0 1 0 0 0 1 0 0 1 0 0 1 1 1 1 0 0 1 1 0 1 1 1 1 1 1 0 0 1 0 0 1 1 0 0 0 1 0 0 1 0 0 1 0 0 1 1 1 1
    1       1    0 0 0 0 1 0 0 0 1 1 0 1 0 0 0 0 0 1 1 1 1 1 0 1 1 1 0 0 0 0 0 1 0 0 1 1 1 1 1 1 1 1 1 1 1 1 1 1 1 1 1
    1       1    0 1 1 1 1 0 0 0 1 0 0 0 0 0 0 1 1 0 0 1 1 0 0 1 1
   26       2    0 1 0 1 0 0 0 1 0 0 1 0 0 1 0 1 1 0 1 1 1 0 1 0 0 1 1 1 1 0 1 0 1 1 1 0 0 0 1 0 0 1 0 0 1 0 0 1 1 1 1
    1       1    0 0 0 0 1 0 0 0 1 1 0 1 0 0 0 0 0 1 1 1 1 1 0 1 1 1 0 0 0 0 0 1 0 0 1 1 1 1 1 0 1 1 1 1 1 1 1 1 1 1 1
    1       1    0 1 1 1 1 0 0 0 0 0 0 0 0 0 0 1 1 0 0 1 1 0 0 1 1
   27       2    0 1 0 1 0 0 0 1 0 0 1 0 0 1 0 1 1 0 1 1 1 0 1 1 1 1 1 1 1 1 1 0 0 1 1 0 0 0 1 0 0 1 0 0 1 0 0 1 1 1 1
    1       1    0 0 0 0 1 0 0 1 1 1 0 1 0 0 0 0 0 1 1 1 1 1 0 1 1 1 0 0 0 0 0 1 0 0 1 1 1 1 1 0 1 1 1 1 1 1 1 1 1 1 1
    1       1    0 1 1 1 1 0 0 0 0 0 0 0 0 0 0 1 1 0 0 1 1 0 0 1 1
   28       2    0 1 0 1 0 0 0 1 0 0 1 0 0 1 0 1 1 0 1 1 1 0 1 0 1 1 0 1 1 0 1 0 0 1 1 0 0 0 1 0 0 1 0 0 1 0 0 1 1 1 1
    1       1    0 0 0 0 1 0 0 0 1 1 0 1 0 0 0 0 0 1 1 1 1 1 0 1 1 1 0 0 0 0 0 1 0 1 1 1 1 1 1 0 1 1 1 1 1 1 1 1 1 1 1
    1       1    0 1 1 1 1 0 0 0 0 0 0 0 0 0 0 1 1 0 0 1 1 0 0 1 1
   29       2    0 1 0 1 0 0 0 1 0 0 1 0 0 1 1 1 1 0 1 1 1 0 1 1 1 1 1 1 0 0 1 0 0 1 1 0 0 0 1 0 0 1 0 0 1 0 0 1 1 1 1
    1       1    0 0 0 0 1 0 0 0 1 1 0 1 0 0 0 0 0 1 1 1 1 0 0 1 1 1 0 0 0 0 0 0 0 0 1 1 1 1 1 1 1 1 1 1 1 1 1 1 1 1 1
    1       1    0 1 1 1 1 0 0 0 0 0 0 0 0 0 0 1 1 0 0 1 1 0 0 1 1
   30       2    0 1 0 1 0 0 0 1 0 0 1 0 0 1 0 1 1 0 1 1 1 0 1 0 1 1 1 1 1 0 1 0 0 1 1 0 0 0 1 0 0 1 0 0 1 0 0 1 1 1 1
    1       1    0 0 0 0 1 0 0 0 1 1 0 1 0 0 0 0 0 1 1 1 1 1 0 1 1 1 0 0 0 0 0 1 0 0 1 1 1 1 1 0 1 1 1 1 1 1 1 1 1 1 1
    1       1    0 1 1 1 1 0 0 0 0 0 0 0 0 0 0 1 1 0 0 1 1 0 0 1 1
   31       2    0 1 0 1 0 0 0 1 0 0 1 0 0 1 1 1 1 0 1 0 1 0 1 0 1 1 0 1 0 0 1 0 0 0 1 1 0 0 1 0 0 1 0 0 1 0 0 1 1 1 1
    1       1    0 0 0 0 1 0 0 0 1 1 0 1 0 0 0 0 0 0 1 1 1 1 0 1 1 1 0 0 0 0 0 1 0 0 1 1 1 1 1 0 1 1 1 1 1 1 1 1 1 1 1
    1       1    0 1 1 1 1 0 0 0 0 0 0 0 0 0 0 1 1 1 0 1 1 0 0 1 1
   32       2    0 1 0 1 0 0 0 1 0 0 1 0 0 1 1 1 0 0 1 1 1 0 1 1 0 1 1 1 1 1 1 0 0 1 0 0 0 0 1 0 0 1 0 0 1 0 0 1 1 1 1
    1       1    0 0 0 0 1 0 0 0 1 0 0 1 0 0 0 0 0 0 1 1 1 0 0 1 1 1 0 0 0 0 0 1 0 0 1 1 1 1 1 1 1 1 1 1 1 1 1 1 1 1 1
    1       1    0 1 1 1 1 0 0 0 0 0 0 0 0 0 0 1 0 0 0 1 1 0 0 1 1
   33       2    0 1 0 1 0 1 0 1 0 0 1 0 0 1 0 1 1 0 1 1 1 0 1 1 1 1 1 1 0 0 1 0 0 1 1 0 0 0 1 0 0 1 0 0 1 0 0 1 1 1 1
    1       1    0 0 0 0 1 0 0 0 1 1 0 1 0 0 0 0 0 1 1 0 1 1 0 1 1 1 0 0 0 0 0 0 0 0 1 1 1 1 1 1 1 1 1 1 1 1 1 1 1 1 1
    1       1    0 1 1 1 1 0 0 0 0 0 0 1 1 0 0 1 0 0 0 1 1 0 0 1 1
   34       2    0 1 0 1 0 0 0 1 0 0 1 0 0 1 0 1 1 0 1 0 1 0 1 1 0 1 0 1 1 0 1 0 0 1 1 0 0 0 1 0 0 1 0 0 1 0 0 1 1 1 1
    1       1    0 0 0 0 1 0 0 0 1 1 0 1 1 0 0 0 0 0 1 1 1 0 0 1 1 1 0 0 0 0 0 1 0 0 1 1 1 1 1 0 1 1 1 1 1 1 1 1 1 1 1
    1       1    0 1 1 1 1 0 0 0 0 0 0 0 0 1 0 1 0 0 0 1 1 0 0 1 1
   35       2    0 1 0 1 0 0 0 1 0 0 1 0 0 1 0 1 1 0 1 1 1 0 1 1 0 1 1 1 1 0 1 0 1 1 1 0 1 0 1 0 0 1 0 0 1 0 1 1 1 1 1
    1       1    0 0 0 0 1 0 0 0 1 1 0 1 0 0 0 0 0 1 1 1 1 1 0 1 1 1 0 0 0 0 0 1 0 0 0 1 1 1 1 0 1 1 1 1 1 1 1 1 1 1 0
    1       1    0 1 1 1 1 0 0 0 0 0 0 0 1 0 0 1 1 0 0 1 1 0 0 1 1
   36       2    0 1 0 1 0 0 0 1 0 0 1 0 0 1 1 1 0 0 1 1 1 0 1 1 1 1 0 1 0 0 1 0 1 1 1 1 0 0 1 0 0 1 0 0 1 0 1 1 1 1 1
    1       1    0 0 0 0 1 0 0 0 0 1 0 1 0 0 0 0 0 0 1 1 1 1 0 1 1 1 0 0 0 0 0 1 1 0 0 1 1 1 1 0 1 1 1 1 1 1 1 1 1 1 0
    1       1    0 1 1 1 1 0 0 0 0 0 0 1 0 0 0 1 1 0 0 1 1 0 0 1 1
   37       2    0 1 0 1 0 0 0 1 0 0 1 0 0 1 0 1 1 0 1 1 1 0 1 1 0 1 1 1 1 1 1 0 0 1 1 0 1 0 1 0 0 1 0 0 1 0 1 1 1 1 1
    1       1    0 0 0 0 1 0 0 1 1 1 0 1 1 0 0 0 0 1 1 1 1 0 0 1 1 1 0 0 0 0 0 1 0 0 1 1 1 1 1 0 1 1 1 1 1 1 1 1 1 1 0
    1       1    0 1 1 1 1 0 0 0 0 0 0 0 1 0 0 1 1 0 0 1 1 0 0 1 1
   38       2    0 1 0 1 0 0 0 1 0 0 1 0 0 1 1 1 1 0 1 1 1 0 1 1 0 1 1 1 1 0 1 0 1 1 1 0 1 0 1 0 0 1 0 0 1 0 1 1 1 1 1
    1       1    0 0 0 0 1 0 0 0 1 1 0 1 0 0 1 0 0 1 1 1 1 1 0 1 1 1 0 0 0 0 0 1 0 0 0 1 1 1 1 0 1 1 1 1 1 1 1 1 1 1 0
    1       1    0 1 1 1 1 0 0 0 0 0 0 1 1 0 0 1 1 1 0 1 1 0 0 1 1
   39       2    0 1 0 1 0 0 0 1 0 0 1 0 0 1 1 1 1 0 1 1 1 0 1 1 1 1 1 1 0 0 1 0 0 1 1 1 0 0 1 0 0 1 0 0 1 0 1 1 1 1 1
    1       1    0 0 0 0 1 0 0 0 0 1 0 1 0 0 0 0 0 0 1 1 1 1 0 1 1 1 0 0 0 0 0 1 0 0 0 1 1 1 1 0 1 1 1 1 1 1 1 1 1 1 0
    1       1    0 1 1 1 1 0 0 0 0 0 0 0 0 0 0 1 1 1 0 1 1 0 0 1 1
   40       2    0 1 0 1 0 0 0 1 0 0 1 0 0 1 0 1 1 0 1 1 1 1 1 1 0 1 1 1 1 1 1 0 0 1 1 0 0 0 1 0 0 1 0 0 1 0 1 1 1 1 1
    1       1    0 0 0 0 1 0 0 1 1 1 0 1 1 0 0 0 0 1 1 1 1 1 0 1 1 1 0 0 0 0 0 0 0 0 1 1 1 1 1 0 1 1 1 1 1 1 1 1 1 1 0
    1       1    0 1 1 1 1 0 0 0 0 0 0 0 1 0 0 1 1 0 0 1 1 0 0 1 1
   41       2    0 1 0 1 0 0 0 1 0 0 1 0 0 1 1 1 1 0 1 1 1 0 1 1 1 1 1 1 0 0 1 0 1 1 1 0 1 0 1 0 0 1 0 0 1 0 1 1 1 1 1
    1       1    0 0 0 0 1 0 0 0 1 1 0 1 0 1 1 0 0 1 1 1 1 1 0 1 1 1 0 0 0 0 0 1 0 0 1 1 1 1 1 0 1 1 1 1 1 1 1 1 1 1 0
    1       1    0 1 1 1 1 0 0 0 0 0 0 1 1 0 0 1 1 0 0 1 1 0 0 1 1
   42       2    0 1 0 1 0 0 0 1 0 0 1 0 0 1 0 1 1 0 1 1 1 0 1 1 0 1 1 1 1 0 1 0 1 1 1 0 1 0 1 0 0 1 0 0 1 0 1 1 1 1 1
    1       1    0 0 0 0 1 0 0 0 1 1 0 1 0 0 0 0 0 1 1 1 1 1 0 1 1 1 0 0 0 0 0 1 0 0 0 1 1 1 1 0 1 1 1 1 1 1 1 1 1 1 0
    1       1    0 1 1 1 1 0 0 0 0 0 0 0 1 0 0 1 1 0 0 1 1 0 0 1 1
   43       2    0 1 0 1 0 0 0 1 0 0 1 0 0 1 0 1 1 0 1 1 1 0 1 1 1 1 1 1 1 0 1 1 0 1 1 0 0 0 1 0 0 1 0 0 1 0 1 1 1 1 1
    1       1    0 0 0 0 1 0 0 0 0 1 0 1 0 0 0 0 0 1 1 1 1 1 0 1 1 1 0 0 0 0 0 1 1 1 0 1 1 1 1 0 1 1 1 1 1 1 1 1 1 1 0
    1       1    0 1 1 1 1 0 0 0 0 0 0 0 0 0 0 1 1 0 0 1 1 0 0 1 1
   44       2    0 1 0 1 0 0 0 1 0 0 1 0 0 1 1 1 1 0 1 1 1 0 1 1 1 1 1 1 0 0 1 1 0 1 1 0 0 0 1 0 0 1 0 0 1 0 1 1 1 1 1
    1       1    0 0 0 0 1 0 0 0 0 1 0 1 0 0 0 0 0 0 1 1 1 1 0 1 1 1 0 0 0 0 0 1 0 0 0 1 1 1 1 0 1 1 1 1 1 1 1 1 1 1 0
    1       1    0 1 1 1 1 0 0 0 0 0 1 0 0 0 0 1 1 0 0 1 1 0 0 1 1
   45       2    0 1 0 1 0 0 0 1 0 0 1 0 0 1 1 1 1 0 1 1 0 0 1 1 1 1 1 1 1 0 0 0 0 1 1 1 0 0 1 0 0 1 0 0 1 0 1 1 1 1 1
    1       1    0 0 0 0 1 0 0 0 0 1 0 1 0 0 0 0 0 0 1 1 1 1 1 1 1 1 0 0 0 0 0 1 0 0 0 1 1 1 1 1 1 1 1 1 1 1 1 1 1 1 0
    1       1    0 1 1 1 1 0 0 0 0 0 0 0 1 0 0 1 1 0 0 1 1 0 0 1 1
   46       2    0 1 0 1 0 0 0 1 0 0 1 0 0 1 1 1 1 0 1 1 1 0 1 1 1 1 1 1 1 0 1 0 0 1 1 0 1 0 1 0 0 1 0 0 1 0 1 1 1 1 1
    1       1    0 0 0 0 1 0 0 0 1 1 0 1 0 0 0 0 0 1 1 1 1 1 0 1 1 1 0 0 0 0 0 1 0 0 1 1 1 0 1 0 1 1 1 1 1 1 1 1 1 1 0
    1       1    0 1 1 1 1 0 0 0 0 0 0 0 1 0 0 0 1 0 0 1 1 0 0 1 1
   47       2    0 1 0 1 0 0 0 1 0 0 1 0 0 1 0 1 1 0 1 1 1 0 1 1 1 1 1 1 1 0 1 0 0 1 1 0 0 0 1 0 0 1 0 0 1 0 0 1 1 1 1
    1       1    0 0 0 0 1 0 0 0 1 1 0 1 0 0 0 0 0 1 1 1 1 1 0 1 1 1 0 0 0 0 0 1 0 0 1 1 1 1 1 0 1 1 1 1 1 1 1 1 1 1 0
    1       1    0 1 1 1 1 0 0 1 0 0 0 0 0 0 0 0 1 0 0 1 1 0 0 1 1
   48       2    0 1 0 1 0 0 0 1 0 0 1 0 0 1 0 1 0 0 1 1 0 0 1 1 0 1 0 1 0 0 1 0 1 1 1 0 0 0 1 0 0 1 0 1 0 0 0 1 1 1 1
    1       1    0 0 0 0 1 0 0 0 0 1 1 1 0 0 0 1 0 0 1 1 1 1 0 1 1 1 0 0 0 0 0 1 0 0 1 1 1 1 1 1 1 1 1 1 1 1 1 1 0 1 1
    1       1    0 1 1 1 1 0 0 0 0 0 0 1 0 0 0 1 1 0 0 1 1 0 0 1 1
   49       2    0 1 0 1 0 0 0 1 0 0 1 0 0 1 0 1 0 0 0 0 1 0 1 1 1 1 0 1 0 0 0 0 1 1 0 0 1 0 1 0 1 1 1 0 0 0 0 1 1 1 0
    1       0    1 0 0 0 0 0 0 0 0 1 0 0 1 1 0 0 0 0 1 1 1 1 0 1 1 1 0 0 0 0 0 1 0 0 0 1 1 1 1 1 1 1 1 1 1 1 1 1 0 1 0
    1       1    0 1 1 1 1 0 0 1 0 0 1 1 1 0 0 1 1 0 0 1 1 0 0 1 1
   50       2    0 1 0 1 0 0 0 1 0 0 1 0 1 1 0 1 0 0 0 0 1 0 1 1 1 1 0 1 0 0 0 0 1 1 0 0 1 0 1 0 1 1 1 0 0 0 0 1 1 1 0
    1       0    1 0 0 0 0 0 0 0 0 1 0 0 1 1 0 0 0 0 1 0 1 1 0 1 1 1 0 0 0 0 0 1 0 0 0 1 1 1 1 1 1 1 1 1 1 1 1 1 0 1 0
    1       1    0 1 1 1 1 0 0 1 0 0 1 1 1 0 0 1 1 0 0 1 1 0 0 1 1
   51       2    0 1 0 1 0 0 0 1 0 0 1 0 0 1 0 0 0 0 0 0 1 0 1 1 1 1 0 1 0 0 0 0 1 1 0 0 1 0 1 0 1 1 1 0 0 0 0 1 1 1 0
    1       0    1 0 0 0 0 0 1 0 0 1 0 0 1 1 0 0 0 0 1 1 1 1 0 1 1 1 0 0 0 0 0 1 0 0 0 1 1 1 1 1 1 1 1 1 1 1 1 1 0 1 0
    1       1    0 1 1 1 1 0 0 1 0 0 1 1 1 0 0 1 1 0 0 1 1 0 0 1 1
   52       2    0 1 0 1 0 0 0 1 0 0 1 0 1 1 0 1 0 0 0 1 1 0 1 0 1 1 0 1 0 1 0 0 1 1 1 1 1 0 1 0 1 1 0 0 0 0 1 1 1 1 0
    1       1    0 0 0 0 1 1 0 0 0 1 1 1 0 1 0 0 0 0 1 0 1 1 0 1 1 1 0 0 0 0 0 1 0 0 0 0 0 1 1 1 0 1 1 1 1 1 1 1 1 1 0
    1       1    0 1 1 1 1 1 0 0 1 0 0 1 1 0 0 1 1 0 0 1 1 0 0 1 1
   53       2    0 1 0 1 0 0 0 1 0 0 1 0 0 1 1 1 0 0 1 1 0 0 1 1 1 1 0 1 0 0 0 0 0 1 1 0 0 0 1 0 1 1 0 1 0 0 0 1 1 1 0
    1       1    0 0 0 0 1 1 0 0 0 1 0 1 0 0 0 0 0 0 1 0 1 1 0 1 1 1 0 0 0 0 0 1 1 0 1 1 1 1 1 1 1 1 1 1 1 1 1 1 0 1 1
    1       1    0 1 1 1 1 0 0 0 0 0 0 1 0 0 0 1 1 0 0 1 1 0 0 1 1
   54       2    0 1 0 1 0 0 0 1 0 0 1 0 0 1 0 1 0 0 1 1 1 0 1 1 1 1 0 1 0 0 0 0 0 1 0 0 0 0 1 0 1 1 0 1 0 0 0 1 1 1 0
    1       1    0 0 0 0 1 1 0 0 0 1 1 0 1 1 0 0 0 0 1 0 1 1 0 1 1 1 0 0 0 0 0 1 1 0 0 1 1 1 1 1 1 1 1 1 1 1 1 1 0 1 0
    1       1    0 1 1 1 1 0 0 1 0 0 0 1 1 0 0 1 1 0 0 1 1 0 0 1 1
   8800000.00000000        1618033.00000000       0.000000000000000E+000
  1.136363636363636E-007   5534704.00000000        6524285.00000000     
           1          23          54
   7693850.00000000        4736181.00000000        3388663.00000000     
   3794849.00000000        7476348.00000000        7010214.00000000     
   6978659.00000000        7133126.00000000        8221326.00000000     
   6223702.00000000        5988819.00000000        3080008.00000000     
   116610.000000000        2743148.00000000        6990935.00000000     
   730648.000000000        2156586.00000000        1677364.00000000     
   3167468.00000000        928237.000000000        8216823.00000000     
   806796.000000000        5534704.00000000        2332016.00000000     
   5108380.00000000        8555068.00000000        3256979.00000000     
   1530600.00000000        5113987.00000000        197911.000000000     
   6139383.00000000        467833.000000000        4446097.00000000     
   902078.000000000        5335903.00000000        3806655.00000000     
   4472608.00000000        8489095.00000000        8489797.00000000     
   3314625.00000000        4644811.00000000        6727114.00000000     
   6808467.00000000        5711143.00000000        7536955.00000000     
   2779904.00000000        32889.0000000000        4687919.00000000     
   7025820.00000000        4828253.00000000        4371534.00000000     
   3763600.00000000        7505699.00000000        5453469.00000000     
   4306910.00000000     
   8800000.00000000        1618033.00000000       0.000000000000000E+000
  1.136363636363636E-007   5544352.00000000        1667309.00000000     
           1          23          54
   6723622.00000000        1779437.00000000        2195119.00000000     
   8720663.00000000        8727780.00000000        3332044.00000000     
   28689.0000000000        2663308.00000000        7414148.00000000     
   4940254.00000000        459599.000000000        6300214.00000000     
   8554604.00000000        3002050.00000000        2621285.00000000     
   8306482.00000000        7524012.00000000        3671988.00000000     
   4905354.00000000        5734917.00000000        1307491.00000000     
   5768278.00000000        5544352.00000000        6932018.00000000     
   4313378.00000000        5127222.00000000        1307169.00000000     
   7055190.00000000        2945717.00000000        7563107.00000000     
   881477.000000000        6096313.00000000        7414939.00000000     
   314972.000000000        2149161.00000000        1750983.00000000     
   8539750.00000000        6087969.00000000        2830489.00000000     
   866907.000000000        6013557.00000000        5829554.00000000     
   5767221.00000000        1225097.00000000        5235045.00000000     
   8342864.00000000        5882775.00000000        1122097.00000000     
   4344866.00000000        594411.000000000        5873232.00000000     
   432280.000000000        423335.000000000        189251.000000000     
   2374000.00000000     
   8800000.00000000        1618033.00000000       0.000000000000000E+000
  1.136363636363636E-007   8089088.00000000        2512077.00000000     
           1          23          54
   155326.000000000        2305629.00000000        7143711.00000000     
   6982211.00000000        1447604.00000000        1078104.00000000     
   5727149.00000000        1740632.00000000        75952.0000000000     
   6183918.00000000        6959559.00000000        276306.000000000     
   4390912.00000000        4138414.00000000        7329985.00000000     
   6533670.00000000        4876144.00000000        5067956.00000000     
   5907206.00000000        6458677.00000000        359867.000000000     
   5772202.00000000        8089088.00000000        5758582.00000000     
   2696814.00000000        8476650.00000000        5530749.00000000     
   7059570.00000000        783577.000000000        4096379.00000000     
   5373985.00000000        7567673.00000000        5174383.00000000     
   6373080.00000000        7841917.00000000        3115479.00000000     
   319794.000000000        1532437.00000000        2301633.00000000     
   1476431.00000000        1697929.00000000        437634.000000000     
   2337849.00000000        3162125.00000000        8066425.00000000     
   2777584.00000000        4868627.00000000        674293.000000000     
   3113838.00000000        304967.000000000        1826068.00000000     
   7440040.00000000        2864687.00000000        4045775.00000000     
   1463380.00000000     
