          60          54   1.00000000000000     
    1       2    0 1 0 1 0 1 0 1 0 0 1 0 0 0 1 1 0 0 1 1 1 1 1 1 1 0 1 1 1 1 1 1 0 1 1 1 0 1 0 0 0 0 1 0 0 0 0 1 1 0 1
    1       0    0 1 0 0 0 0 0 0 0 0 1 0 0 0 1 0 0 1 1 0 0 1 0 0 1 1 0 0 0 0 0 0 0 0 0 0 1 0 0 1 0 1 1 1 0 0 1 0 1 0 1
    1       1    1 0 0 0 0 1 0 1 1 1 0 0 1 1 0 1 0 1 0 1 1 0 0 1 1
    2       2    0 1 0 1 0 1 0 1 0 0 1 0 0 0 1 1 0 0 0 1 1 1 1 1 1 0 1 1 0 1 0 1 0 1 1 1 0 1 0 0 0 0 1 0 0 0 0 1 1 0 1
    1       0    0 1 0 0 0 0 0 0 0 0 0 0 1 0 1 0 0 1 1 0 0 1 0 0 1 1 0 0 0 0 0 0 0 0 0 0 1 0 0 1 0 1 1 1 0 0 1 0 1 0 1
    1       1    1 0 0 0 0 1 0 1 1 1 0 0 1 1 0 1 0 1 0 1 1 0 0 1 1
    3       2    0 1 0 1 0 1 0 1 0 0 1 0 1 0 1 0 0 0 1 1 1 1 1 0 1 0 0 1 0 1 0 1 0 1 1 0 0 1 0 0 0 0 1 0 0 0 0 1 1 0 1
    1       0    0 1 0 0 0 0 0 0 0 0 1 0 0 0 1 0 0 1 1 0 0 0 0 0 1 1 0 0 0 0 0 0 0 0 0 0 1 0 0 0 1 1 1 1 0 0 1 0 1 0 1
    1       1    1 0 0 0 0 1 0 1 0 1 0 0 1 1 0 1 0 1 0 1 1 0 0 1 1
    4       2    0 1 0 1 0 1 0 1 0 0 1 0 1 0 1 0 0 0 1 1 1 1 1 1 1 0 1 1 1 1 1 1 0 1 1 1 0 1 0 0 0 0 1 0 0 0 0 1 1 0 1
    1       0    0 1 0 0 0 0 1 0 0 0 1 0 0 0 0 0 0 1 1 0 0 1 0 0 1 1 0 0 0 0 0 0 0 0 0 0 1 0 0 1 1 1 1 1 0 0 1 0 1 0 1
    1       1    1 0 0 0 0 1 0 1 1 1 0 0 1 1 0 1 0 0 0 1 1 0 0 1 1
    5       2    0 1 0 1 0 1 0 1 0 0 1 0 1 0 1 1 0 0 0 1 1 1 1 0 1 0 1 1 1 1 0 1 0 1 1 1 0 1 0 0 0 0 1 0 0 0 0 1 1 0 1
    1       0    0 1 0 0 0 0 0 0 0 0 0 0 1 0 1 1 0 0 1 0 0 1 0 0 1 1 0 0 0 0 0 0 0 0 0 0 1 0 0 0 0 1 1 1 0 0 1 0 1 0 1
    1       1    1 0 0 0 0 1 0 1 0 1 0 0 0 1 0 1 0 1 0 1 1 0 0 1 1
    6       2    0 1 0 1 0 1 0 1 0 0 1 0 1 0 1 0 0 0 1 1 1 1 1 0 1 0 0 1 1 1 1 1 0 1 1 0 0 1 0 0 0 0 1 0 0 0 0 1 1 0 1
    1       0    0 1 0 0 0 0 0 0 0 0 1 0 0 0 0 0 0 1 1 0 0 1 0 0 1 1 0 0 0 0 0 0 1 0 0 0 1 0 0 1 0 1 1 1 0 0 1 0 1 0 1
    1       1    1 0 0 0 0 1 0 1 1 1 0 0 1 1 0 1 0 1 0 1 1 0 0 1 1
    7       2    0 1 0 1 0 1 0 1 0 0 1 0 1 0 1 1 0 0 1 1 1 1 1 0 1 0 0 1 1 1 0 1 0 1 1 1 0 1 0 0 0 0 1 0 0 0 0 1 1 0 1
    1       0    0 1 0 0 0 0 0 0 0 0 0 0 1 0 1 0 0 1 1 0 0 1 0 0 1 1 0 0 0 0 0 0 0 0 0 0 1 0 0 0 1 1 1 1 0 0 1 0 1 0 1
    1       1    1 0 0 0 0 1 0 1 0 1 0 0 1 1 0 1 0 1 0 1 1 0 0 1 1
    8       2    0 1 0 1 0 1 0 1 0 0 1 0 0 0 1 1 0 0 1 1 1 1 1 0 1 0 1 1 1 1 0 1 0 1 1 1 0 1 0 0 0 0 1 0 0 0 0 1 1 0 1
    1       0    0 1 0 0 0 0 0 0 0 0 0 0 1 0 1 0 0 1 1 0 1 1 0 0 1 1 0 0 0 0 0 0 0 0 0 0 1 0 0 1 0 1 1 1 0 0 1 0 1 0 1
    1       1    1 0 0 0 0 1 0 1 0 1 0 0 1 1 0 1 0 1 0 1 1 0 0 1 1
    9       2    0 1 0 1 0 1 0 1 0 0 1 0 0 0 1 1 0 0 0 1 1 1 1 1 1 0 1 1 0 1 0 1 0 1 1 1 0 1 0 0 0 0 1 0 0 0 0 1 1 0 1
    1       0    0 1 0 0 0 0 0 0 0 0 0 0 1 0 1 0 0 1 1 0 0 1 0 0 1 1 0 0 0 0 0 0 0 0 0 0 1 0 0 1 0 1 1 1 0 0 1 0 1 0 1
    1       1    1 0 0 0 0 1 0 1 1 1 0 0 1 1 0 1 0 1 0 1 1 0 0 1 1
   10       2    0 1 0 1 0 1 0 1 0 0 1 0 0 0 1 1 0 0 1 1 1 1 1 1 1 0 1 1 1 1 1 1 0 1 1 1 0 1 0 0 0 0 1 0 0 0 0 1 1 0 1
    1       0    0 1 0 0 0 0 0 0 0 0 1 0 0 0 1 0 0 1 1 0 0 1 0 0 1 1 0 0 0 0 0 0 0 0 0 0 1 0 0 1 0 1 1 1 0 0 1 0 1 0 1
    1       1    1 0 0 0 0 1 0 1 1 1 0 0 1 1 0 1 0 1 0 1 1 0 0 1 1
   11       2    0 1 0 1 0 1 0 1 0 0 1 0 1 0 1 0 0 0 1 1 1 1 1 0 1 0 0 1 1 0 0 1 1 1 1 1 0 1 0 0 0 0 1 0 0 0 0 1 1 0 1
    1       0    0 1 0 0 0 0 0 0 0 0 0 0 1 0 1 1 0 0 1 0 0 1 0 0 1 1 0 0 0 0 0 0 0 0 0 1 1 0 0 0 0 1 1 1 0 0 1 0 1 0 1
    1       1    1 0 0 0 0 1 0 1 1 1 0 1 1 1 0 0 0 1 0 1 1 0 0 1 1
   12       2    0 1 0 1 0 0 0 1 0 0 1 0 0 0 1 1 0 0 1 1 1 1 1 0 1 0 1 1 0 1 0 1 0 1 1 1 0 1 0 0 0 0 1 0 0 0 0 1 1 0 1
    1       0    0 1 0 0 0 0 0 0 0 0 1 0 0 0 1 0 1 1 1 0 0 1 0 0 1 1 0 0 0 0 0 0 0 0 0 0 1 0 0 1 0 1 1 1 0 0 1 0 1 0 1
    1       1    1 0 0 0 0 1 0 1 1 1 0 0 1 1 0 1 0 1 0 1 1 0 0 1 1
   13       2    0 1 0 1 0 1 0 1 0 0 1 0 0 0 1 1 0 0 1 1 1 1 1 0 1 0 1 1 1 1 0 1 0 1 1 1 0 1 0 0 0 0 1 0 0 0 0 1 1 0 1
    1       0    0 1 0 0 0 0 0 0 0 0 1 0 1 0 1 0 0 1 1 0 0 1 0 0 1 1 0 0 0 0 0 0 0 0 0 0 1 0 0 1 0 1 1 1 0 0 1 0 1 0 1
    1       1    1 0 0 0 0 1 0 1 1 1 0 0 1 1 0 1 0 1 0 1 1 0 0 1 1
   14       2    0 1 0 1 0 1 0 1 0 0 1 0 0 0 1 1 0 0 0 1 1 1 1 1 1 0 1 1 0 1 0 1 0 1 1 1 0 1 0 0 0 0 1 0 0 0 0 1 1 0 1
    1       0    0 1 0 0 0 0 0 0 0 0 0 0 1 0 1 0 0 1 1 0 0 1 0 0 1 1 0 0 0 0 0 0 0 0 0 0 1 0 0 1 0 1 1 1 0 0 1 0 1 0 1
    1       1    1 0 0 0 0 1 0 1 1 1 0 0 1 1 0 1 0 1 0 1 1 0 0 1 1
   15       2    0 1 0 1 0 1 0 1 0 0 1 0 0 0 1 1 0 0 1 1 1 1 1 1 1 0 1 1 1 1 1 1 0 1 1 1 0 1 0 0 0 0 1 0 0 0 0 1 1 0 1
    1       0    0 1 0 0 0 0 0 0 0 0 1 0 0 0 1 0 0 1 1 0 0 1 0 0 1 1 0 0 0 0 0 0 0 0 0 0 1 0 0 1 0 1 1 1 0 0 1 0 1 0 1
    1       1    1 0 0 0 0 1 0 1 1 1 0 0 1 1 0 1 0 1 0 1 1 0 0 1 1
   16       2    0 1 0 1 0 1 0 1 0 0 1 0 0 0 1 1 0 0 1 1 1 1 1 1 1 0 1 1 1 1 0 1 0 1 1 1 0 1 0 0 0 0 1 0 0 0 0 1 1 0 1
    1       0    0 1 0 0 0 0 0 0 0 0 0 0 1 0 1 1 0 1 1 0 0 1 0 0 1 1 0 0 0 0 0 0 0 0 0 1 1 0 0 1 0 1 1 1 0 0 1 0 1 0 1
    1       1    1 0 0 0 0 1 0 1 1 1 0 0 1 1 0 1 0 1 0 1 1 0 0 1 1
   17       2    0 1 0 1 0 1 0 1 0 0 1 0 0 0 1 1 0 0 1 1 1 1 1 0 1 0 1 1 1 1 0 1 0 1 1 1 0 1 0 0 0 0 1 0 0 0 0 1 1 0 1
    1       0    0 1 0 0 0 0 0 0 0 0 0 0 1 0 1 0 0 1 1 0 1 1 0 0 1 1 0 0 0 0 0 0 0 0 0 0 1 0 0 1 1 1 1 1 0 0 1 0 1 0 1
    1       1    1 0 0 0 0 1 0 1 1 1 0 0 1 1 0 1 0 1 0 1 1 0 0 1 1
   18       2    0 1 0 1 0 1 0 1 0 0 1 0 0 0 1 1 0 0 0 1 1 1 1 1 1 0 1 1 1 1 0 1 0 1 1 1 0 1 0 0 0 0 1 0 0 0 0 1 1 0 1
    1       0    0 1 0 0 0 0 0 0 0 0 0 0 1 0 1 1 0 0 1 0 0 1 0 0 1 1 0 0 0 0 0 0 0 0 0 0 1 0 0 0 0 1 1 1 0 0 1 0 1 0 1
    1       1    1 0 0 0 0 1 0 1 1 1 0 0 1 1 0 1 0 1 0 1 1 0 0 1 1
   19       2    0 1 0 1 0 1 0 1 0 0 1 0 1 0 1 1 0 0 1 1 1 1 1 0 0 0 1 1 1 1 0 1 0 1 1 1 0 1 0 0 0 0 1 0 0 0 0 1 1 0 1
    1       0    0 1 0 0 0 0 0 0 0 0 0 0 1 0 1 1 0 1 1 0 0 1 0 0 1 1 0 0 0 0 0 0 0 0 0 1 1 0 0 1 0 1 1 1 0 0 1 0 1 0 1
    1       1    1 0 0 0 0 1 0 1 0 1 0 0 0 1 0 1 0 1 0 1 1 0 0 1 1
   20       2    0 1 0 1 0 1 0 1 0 0 1 0 1 0 1 0 0 0 1 1 1 1 0 1 1 0 1 1 1 1 1 1 0 1 1 1 0 1 0 0 0 0 1 0 0 0 0 1 1 0 1
    1       0    0 1 0 0 0 0 0 0 0 0 1 0 0 0 1 0 0 1 1 0 0 1 0 0 1 1 0 0 0 0 0 0 0 0 0 0 1 0 0 1 0 1 1 1 0 0 1 0 1 0 1
    1       1    1 0 0 0 0 1 0 1 1 1 0 0 1 1 0 1 0 1 0 1 1 0 0 1 1
   21       2    0 1 0 1 0 1 0 1 0 0 1 0 0 0 0 0 0 0 1 1 1 1 1 0 1 0 1 1 1 1 0 1 1 1 1 1 0 1 0 0 0 0 1 0 0 0 0 1 1 0 1
    1       0    0 1 0 0 0 0 0 0 0 0 0 0 1 0 1 1 0 1 1 0 0 1 0 0 1 1 0 0 0 0 0 0 0 0 0 0 1 1 0 1 0 1 1 1 0 0 1 0 1 0 1
    1       1    1 0 0 0 0 1 0 1 1 1 0 1 1 1 0 0 0 1 0 1 1 0 0 1 1
   22       2    0 1 0 1 0 1 0 1 0 0 1 0 0 0 1 1 0 0 1 0 1 1 1 0 1 0 1 1 1 1 0 1 0 0 1 1 0 1 0 0 0 0 1 0 0 0 0 1 1 0 1
    1       0    0 1 0 0 0 0 0 0 0 0 0 0 1 0 1 0 0 1 1 0 0 1 0 0 1 1 0 0 0 0 0 0 0 0 0 0 1 0 0 1 0 1 1 1 0 0 1 0 1 0 1
    1       1    1 0 0 0 0 1 0 1 1 1 0 0 1 1 0 1 0 1 0 1 1 0 0 1 1
   23       2    0 1 0 1 0 1 0 1 0 0 1 0 0 0 1 1 0 0 1 1 1 1 1 0 1 0 1 1 1 1 0 0 0 1 1 1 0 1 0 0 0 0 1 0 0 0 0 1 1 0 1
    1       0    0 1 0 0 0 0 0 0 0 0 1 0 1 0 1 0 0 1 1 0 1 1 0 0 1 1 0 0 0 0 0 0 1 0 0 0 1 0 0 1 0 1 1 1 0 0 1 0 1 0 1
    1       1    1 0 0 0 0 1 0 1 0 1 0 0 1 1 0 1 0 1 0 1 1 0 0 1 1
   24       2    0 1 0 1 0 1 0 1 0 0 1 0 1 0 1 0 0 0 1 1 1 1 1 0 1 0 0 1 1 1 1 1 0 1 1 1 0 1 0 0 0 0 1 0 0 0 0 1 1 0 1
    1       0    0 1 0 0 0 0 1 0 0 0 1 0 0 0 0 0 0 1 1 0 0 1 0 0 1 1 0 0 0 0 0 0 1 0 0 0 1 0 0 1 0 1 1 1 0 0 1 0 1 0 1
    1       1    1 0 0 0 0 1 0 1 1 1 0 0 1 1 0 1 0 1 0 1 1 0 0 1 1
   25       2    0 1 0 1 0 1 0 1 0 0 1 0 1 0 1 0 0 0 1 1 1 1 0 1 1 0 1 1 1 1 1 1 0 1 0 0 0 1 0 0 0 0 1 0 0 0 0 1 1 0 1
    1       0    0 1 0 0 0 0 0 0 0 1 1 0 0 0 1 0 0 1 1 0 0 1 0 0 1 1 0 0 0 0 0 0 0 0 0 0 1 0 0 1 0 1 1 1 0 0 1 0 1 0 1
    1       1    1 0 0 0 0 1 0 1 1 1 0 0 1 1 0 1 0 1 0 1 1 0 0 1 1
   26       2    0 1 0 1 0 1 0 1 0 0 1 0 1 0 1 1 0 0 1 1 1 1 1 1 1 0 1 1 1 1 0 1 0 0 1 1 0 1 0 0 0 0 1 0 0 0 0 1 1 0 1
    1       0    0 1 0 0 0 0 1 0 0 0 1 0 0 0 0 0 0 1 1 0 0 1 0 0 1 1 0 0 0 0 0 0 0 0 0 0 0 0 0 0 1 1 1 1 0 0 1 0 1 0 1
    1       1    1 0 0 0 0 1 0 1 1 1 0 1 1 1 0 1 1 1 0 1 1 0 0 1 1
   27       2    0 1 0 1 0 0 0 1 0 0 1 0 0 0 1 1 0 0 1 1 1 1 1 0 1 0 1 1 0 1 0 1 0 1 1 1 0 1 0 0 0 0 1 0 0 0 0 1 1 0 1
    1       0    0 1 0 0 1 0 0 0 0 0 1 0 1 0 1 0 0 1 1 0 1 1 0 0 1 1 0 0 0 0 0 0 1 0 0 0 1 0 0 1 0 1 1 1 0 0 1 0 1 0 1
    1       1    1 0 0 0 0 1 0 1 0 1 0 0 1 1 0 1 0 1 0 1 1 0 0 1 1
   28       2    0 1 0 1 0 1 0 1 0 0 1 0 0 0 1 1 0 0 1 1 1 1 1 0 1 0 1 1 1 1 1 1 0 1 1 1 0 1 0 0 0 0 1 0 0 0 0 1 1 0 1
    1       0    0 1 0 0 0 0 0 0 0 0 1 0 0 0 1 0 0 1 1 1 0 1 0 0 1 1 0 0 0 0 0 0 0 0 0 0 1 0 0 1 1 1 1 1 0 0 1 0 1 0 1
    1       1    1 0 0 0 0 1 0 1 1 1 0 0 1 1 0 1 0 1 0 1 1 0 0 1 1
   29       2    0 1 0 1 0 1 0 1 0 0 1 0 0 0 1 1 0 0 1 1 1 1 1 1 1 0 1 1 1 1 0 1 0 1 1 1 0 1 0 0 0 0 1 0 0 0 0 1 1 0 1
    1       0    0 1 0 0 0 0 0 0 0 0 0 0 1 0 1 0 0 1 1 1 1 1 0 0 1 1 0 0 0 0 0 0 0 0 0 0 1 0 0 1 0 1 1 1 0 0 1 0 1 0 1
    1       1    1 0 0 0 0 1 0 1 1 1 0 0 1 1 0 1 0 1 0 1 1 0 0 1 1
   30       2    0 1 0 1 0 1 0 1 0 0 1 0 0 0 1 1 0 0 1 1 1 1 1 1 1 0 1 1 1 1 1 1 0 1 0 1 0 1 0 0 0 0 1 0 0 0 0 1 1 0 1
    1       0    0 1 0 0 0 0 0 0 0 0 1 0 0 0 1 0 0 1 1 0 0 1 0 0 1 1 0 0 0 0 0 0 0 0 0 1 1 0 0 1 0 1 1 1 0 0 1 0 1 0 1
    1       1    1 0 0 0 0 1 0 1 1 1 0 0 1 1 0 1 0 1 0 1 1 0 0 1 1
   31       2    0 1 0 1 0 1 0 1 0 0 1 0 0 0 1 0 0 0 1 1 1 1 1 0 1 0 0 1 1 1 0 1 0 1 1 1 0 1 0 0 0 0 1 0 0 0 0 1 1 0 1
    1       0    0 1 0 0 0 0 0 0 0 0 1 0 0 0 0 0 0 1 1 0 0 1 0 0 1 1 0 0 0 0 0 0 0 0 0 0 1 0 0 1 0 1 1 1 0 0 1 0 1 0 1
    1       1    1 0 0 0 0 1 0 1 1 0 0 0 1 1 0 1 0 1 0 1 1 0 0 1 1
   32       2    0 1 0 1 0 1 0 1 0 0 1 0 0 0 1 1 0 0 1 1 1 1 1 1 1 0 1 1 1 1 1 1 0 1 0 0 0 1 0 0 0 0 1 0 0 0 0 1 1 0 1
    1       0    0 1 0 0 0 0 0 0 0 0 1 0 0 0 1 0 0 1 1 0 0 1 0 0 1 1 0 0 0 0 0 0 0 0 0 0 1 0 0 1 0 1 1 1 0 0 1 0 1 0 1
    1       1    1 0 0 0 0 1 0 1 1 1 0 0 0 1 0 1 0 1 0 1 1 0 0 1 1
   33       2    0 1 0 1 0 1 0 1 0 0 1 0 0 0 1 1 0 0 1 1 1 1 1 1 1 0 1 1 1 1 1 1 1 1 1 1 0 1 0 0 0 0 1 0 0 0 0 1 1 0 1
    1       0    0 1 0 0 0 0 0 0 0 0 0 0 1 0 1 0 0 1 0 0 0 1 0 0 1 1 0 0 0 0 0 0 0 0 0 0 1 0 0 1 0 1 1 1 0 0 1 0 1 0 1
    1       1    1 0 0 0 0 1 0 1 1 1 0 1 1 1 0 1 0 1 0 1 1 0 0 1 1
   34       2    0 1 0 1 0 1 0 1 0 0 1 0 0 0 0 1 0 0 1 1 1 1 1 1 1 0 1 1 1 1 0 1 0 1 1 1 0 1 0 0 0 0 1 0 0 0 0 1 1 0 1
    1       0    0 1 0 0 0 0 0 0 0 0 1 0 0 0 1 0 0 1 1 0 0 1 0 0 1 1 0 0 0 0 0 0 0 0 0 0 1 0 0 1 0 1 1 1 0 0 1 0 1 0 1
    1       1    1 0 0 0 0 1 0 1 1 1 0 0 1 1 0 1 0 1 0 1 1 0 0 1 1
   35       2    0 1 0 1 0 0 0 1 0 0 1 0 0 0 1 1 0 0 1 1 1 1 1 0 1 0 1 1 0 1 1 1 0 1 1 1 0 1 0 0 0 0 1 0 0 0 0 1 1 0 1
    1       0    0 1 0 0 1 0 1 0 0 0 1 0 1 0 1 0 0 1 1 0 1 1 0 0 1 1 0 0 0 0 0 0 1 0 0 1 1 0 0 1 0 1 1 1 0 0 1 0 1 0 1
    1       1    1 0 0 0 0 1 0 1 0 1 0 0 1 1 0 1 0 1 0 1 1 0 0 1 1
   36       2    0 1 0 1 0 0 0 1 0 0 1 0 0 0 1 0 0 0 0 1 1 1 0 1 1 0 1 1 0 1 0 1 0 1 1 1 0 1 0 0 0 0 1 0 0 0 0 1 1 0 1
    1       0    0 1 0 0 0 0 0 0 0 0 1 0 0 0 1 0 0 1 1 0 0 1 0 0 1 1 0 0 0 0 0 0 0 0 0 0 1 0 0 1 0 1 1 1 0 0 1 0 1 0 1
    1       1    1 0 0 0 0 1 0 1 1 1 0 0 1 1 0 1 0 1 0 1 1 0 0 1 1
   37       2    0 1 0 1 0 1 0 1 0 0 1 0 0 0 1 1 0 0 1 1 1 1 1 1 1 0 1 1 1 1 0 0 0 1 1 1 0 1 0 0 0 0 1 0 0 0 0 1 1 0 1
    1       0    0 1 0 0 0 0 0 0 1 0 0 0 1 0 1 1 0 1 1 0 0 1 0 0 1 1 0 0 0 0 0 0 0 0 0 0 1 0 0 1 1 1 1 1 0 0 1 0 1 0 1
    1       1    1 0 0 0 0 1 0 1 1 1 0 0 1 1 0 1 0 1 0 1 1 0 0 1 1
   38       2    0 1 0 1 0 1 0 1 0 0 1 0 0 0 1 0 0 0 1 1 1 1 1 1 1 0 1 1 1 1 1 1 0 1 1 1 0 1 0 0 0 0 1 0 0 0 0 1 1 0 1
    1       0    0 1 0 0 0 0 0 0 0 0 0 0 0 0 0 1 0 1 1 0 0 1 0 0 1 1 0 0 0 0 0 0 0 0 0 1 1 0 0 1 1 1 1 1 0 0 1 0 1 0 1
    1       1    1 0 0 0 0 1 0 1 1 1 0 0 1 1 0 1 0 0 0 1 1 0 0 1 1
   39       2    0 1 0 1 0 1 0 1 0 0 1 0 1 0 1 0 0 0 0 1 1 1 1 0 1 0 1 1 1 1 1 1 0 1 1 1 0 1 0 0 0 0 1 0 0 0 0 1 1 0 1
    1       0    0 1 0 0 0 0 1 1 0 0 1 0 0 0 1 0 0 1 1 0 0 1 0 0 1 1 0 0 0 0 0 0 0 0 0 0 1 0 0 1 0 1 1 1 0 0 1 0 1 0 1
    1       1    1 0 0 0 0 1 0 1 1 1 0 0 1 1 0 1 0 1 0 1 1 0 0 1 1
   40       2    0 1 0 1 0 1 0 1 0 0 1 0 0 0 1 0 0 0 1 1 1 1 1 1 1 0 1 1 0 1 1 1 0 1 1 1 0 1 0 0 0 0 1 0 0 0 0 1 1 0 1
    1       0    0 1 0 0 0 0 1 0 0 0 1 0 0 0 1 0 0 1 1 0 0 1 0 0 1 1 0 0 0 0 0 0 0 0 0 1 1 0 0 1 0 1 1 1 0 0 1 0 1 0 1
    1       1    1 0 0 0 0 1 0 1 0 1 0 0 1 1 0 1 0 1 0 1 1 0 0 1 1
   41       2    0 1 0 1 0 1 0 1 0 0 1 0 0 0 1 1 0 0 1 1 1 1 1 0 1 0 1 1 1 1 1 1 0 1 1 1 0 1 0 0 0 0 1 0 0 0 0 1 1 0 1
    1       0    0 1 0 0 0 0 0 0 0 0 0 0 1 0 1 1 0 1 1 0 0 1 0 0 1 1 0 0 0 0 0 0 0 0 0 1 1 0 0 1 1 1 1 1 0 0 1 0 1 0 1
    1       1    1 0 0 0 0 1 0 1 0 1 0 0 1 1 0 1 0 1 0 1 1 0 0 1 1
   42       2    0 1 0 1 0 1 0 1 0 0 1 0 1 0 1 1 0 0 0 1 1 1 1 1 1 0 1 1 0 1 0 1 0 1 1 0 0 1 0 0 0 0 1 0 0 0 0 1 1 0 1
    1       0    0 1 0 0 0 0 0 0 0 0 1 0 0 0 1 0 0 1 1 0 0 1 0 0 1 1 0 0 0 0 0 0 0 1 0 0 1 0 0 1 0 1 1 1 0 0 1 0 1 0 1
    1       1    1 0 0 0 0 1 0 1 0 1 0 0 1 1 0 1 0 1 0 1 1 0 0 1 1
   43       2    0 1 0 1 0 1 0 1 0 0 1 0 1 0 1 1 0 0 1 1 1 1 1 1 1 0 1 1 0 1 0 1 0 1 1 1 0 1 0 0 0 0 1 0 0 0 0 1 1 0 1
    1       0    0 1 0 0 0 0 1 0 0 0 1 0 0 0 1 0 0 1 1 0 0 1 0 0 1 1 0 0 0 0 0 0 0 0 1 0 1 0 0 1 1 1 1 1 0 0 1 0 1 0 1
    1       1    1 0 0 0 0 1 0 1 1 1 0 0 1 1 0 1 0 0 0 1 1 0 0 1 1
   44       2    0 1 0 1 0 1 0 1 0 0 1 0 0 0 1 1 0 0 1 1 1 1 0 1 1 0 1 1 1 1 0 1 0 1 1 1 0 1 0 0 0 0 1 0 0 0 0 1 1 0 1
    1       0    0 1 0 0 0 0 0 0 0 0 0 0 1 0 1 0 0 1 1 0 1 1 0 0 1 1 0 0 0 0 0 0 0 0 0 0 1 0 0 1 0 1 1 1 0 0 1 0 1 0 1
    1       1    1 0 0 0 0 1 0 1 0 1 0 0 1 1 0 1 0 1 0 1 1 0 0 1 1
   45       2    0 1 0 1 0 1 0 1 0 0 1 0 0 0 1 1 0 0 1 1 1 1 1 0 1 0 1 1 1 1 0 1 0 1 1 1 0 1 0 0 0 0 1 0 0 0 0 1 1 0 1
    1       0    0 1 0 0 0 0 0 0 0 0 0 0 1 0 1 0 0 1 1 1 1 1 0 0 1 1 0 0 0 0 0 0 0 0 0 0 1 0 0 1 0 1 1 1 0 0 1 0 1 0 1
    1       1    1 0 0 0 0 1 0 1 1 1 0 0 1 1 0 1 0 1 0 1 1 0 0 1 1
   46       2    0 1 0 1 0 1 0 1 0 0 1 0 0 0 1 0 0 0 1 1 1 1 1 0 1 0 1 1 1 1 0 1 0 1 1 1 0 1 0 0 0 0 1 0 0 0 0 1 1 0 1
    1       0    0 1 0 0 0 0 0 0 0 0 0 0 0 0 1 0 0 1 1 0 0 1 0 0 1 1 0 0 0 0 0 0 0 0 0 0 1 1 0 1 0 1 1 1 0 0 1 0 1 0 1
    1       1    1 0 0 0 0 1 0 1 1 0 0 0 1 1 0 0 0 1 0 1 1 0 0 1 1
   47       2    0 1 0 1 0 1 0 1 0 0 1 0 0 0 1 0 0 0 1 1 1 1 1 1 1 0 1 1 0 1 1 1 0 1 1 1 0 1 0 0 0 0 1 0 0 0 0 1 1 0 1
    1       0    0 1 0 0 0 0 1 0 0 0 1 0 0 0 1 0 0 1 1 0 0 1 0 0 1 1 0 0 0 0 0 0 0 0 0 0 1 0 1 1 0 1 1 1 0 0 1 0 1 0 1
    1       1    1 0 0 0 0 1 0 1 1 1 0 0 1 1 0 1 0 1 0 1 1 0 0 1 1
   48       2    0 1 0 1 0 0 0 1 0 0 1 0 0 0 1 1 0 0 1 0 1 0 1 0 1 0 1 1 1 1 1 1 0 1 1 1 0 1 0 0 0 0 1 0 0 0 0 1 1 0 1
    1       0    0 1 0 0 0 0 0 0 0 0 1 0 1 0 1 1 0 1 1 0 0 1 0 0 1 1 0 0 0 0 0 0 0 0 0 0 1 0 0 1 1 1 1 1 0 0 1 0 1 0 1
    1       1    1 0 0 0 0 1 0 1 0 1 0 0 1 1 0 1 0 1 0 1 1 0 0 1 1
   49       2    0 1 0 1 0 1 0 1 0 0 1 0 1 0 1 1 0 0 1 1 1 1 1 0 1 0 0 1 1 1 0 1 0 1 1 1 0 1 0 0 0 0 1 0 0 0 0 1 1 0 1
    1       0    0 1 0 0 0 0 0 0 0 0 0 0 1 0 1 0 0 1 1 0 0 1 0 0 1 1 0 0 0 0 0 0 0 0 0 0 1 0 1 1 1 1 1 1 0 0 1 0 1 0 1
    1       1    1 0 0 0 0 1 0 1 0 1 0 0 1 1 0 1 0 1 0 1 1 0 0 1 1
   50       2    0 1 0 1 0 0 0 1 0 0 1 0 1 0 1 0 0 0 0 1 1 1 0 1 0 0 1 1 0 1 0 1 0 1 1 1 0 1 0 0 0 0 1 0 0 0 0 1 1 0 1
    1       0    0 1 0 0 1 0 0 0 0 0 1 0 0 0 1 0 1 1 1 0 0 0 0 0 1 1 0 0 0 0 0 0 0 0 0 0 1 0 0 1 0 1 1 1 0 0 1 0 1 0 1
    1       1    1 0 0 0 0 1 0 1 1 1 0 0 1 1 0 1 0 1 0 1 1 0 0 1 1
   51       2    0 1 0 1 0 1 0 1 0 0 1 0 0 0 1 1 0 0 1 1 1 1 1 1 1 0 1 1 1 1 0 1 0 1 1 1 0 1 0 0 0 0 1 0 0 0 0 1 1 0 1
    1       0    0 1 0 0 0 0 0 0 0 0 0 0 1 0 1 1 0 1 1 0 0 1 0 0 1 1 0 0 0 0 0 0 0 0 0 1 1 0 0 1 0 1 1 1 0 0 1 0 1 0 1
    1       1    1 0 0 0 0 1 0 1 1 1 0 0 1 1 0 1 0 1 0 1 1 0 0 1 1
   52       2    0 1 0 1 0 1 0 1 0 0 1 0 0 0 1 0 0 0 1 1 1 1 1 1 1 0 0 1 1 1 1 1 0 1 1 0 0 1 0 0 0 0 1 0 0 0 0 1 1 0 1
    1       0    0 1 0 0 0 1 0 0 0 0 1 0 0 0 1 0 0 1 1 0 0 0 0 0 1 1 0 0 0 0 0 0 0 0 0 0 1 0 0 0 1 1 1 1 0 0 1 0 1 0 1
    1       1    1 0 0 0 0 1 0 1 0 1 0 0 1 1 0 1 0 1 0 1 1 0 0 1 1
   53       2    0 1 0 1 0 1 0 1 0 0 1 0 1 0 1 0 0 0 1 1 1 1 1 0 1 0 0 1 1 1 1 1 0 1 1 0 0 1 0 0 0 0 1 0 0 0 0 1 1 0 1
    1       0    0 1 0 0 0 0 0 1 0 0 1 0 0 0 0 0 0 1 1 0 0 1 0 0 1 1 0 0 0 0 0 0 0 0 0 0 1 0 0 0 0 1 1 1 0 0 1 0 1 0 1
    1       1    1 0 0 0 0 1 0 1 1 1 0 0 1 1 0 1 0 1 0 1 1 0 0 1 1
   54       2    0 1 0 1 0 1 0 1 0 0 1 0 0 1 1 1 0 0 1 1 1 1 1 0 1 0 0 1 0 1 0 1 0 1 1 1 0 1 0 0 0 0 1 0 0 0 1 1 1 0 1
    1       0    1 0 0 0 0 0 0 0 1 0 0 0 1 0 1 1 0 1 1 0 0 0 0 1 1 1 0 0 0 0 0 0 0 0 0 0 0 0 0 0 1 1 1 1 0 0 1 0 1 0 0
    1       1    1 0 0 0 0 0 1 1 1 1 0 0 1 1 0 1 0 1 0 1 1 0 0 1 1
   8800000.00000000        1618033.00000000       0.000000000000000E+000
  1.136363636363636E-007   7953244.00000000        6524285.00000000     
           1          11          42
   3832773.00000000        7245921.00000000        8473133.00000000     
   6994190.00000000        7514797.00000000        7808779.00000000     
   5857032.00000000        8312902.00000000        73479.0000000000     
   81039.0000000000        7953244.00000000        5587904.00000000     
   5507286.00000000        923774.000000000        3338690.00000000     
   479589.000000000        1445760.00000000        1513468.00000000     
   232901.000000000        1793421.00000000        8151237.00000000     
   4646515.00000000        5576508.00000000        4619243.00000000     
   3229242.00000000        388452.000000000        5747811.00000000     
   3457206.00000000        7829679.00000000        8355936.00000000     
   7227948.00000000        1139051.00000000        1552774.00000000     
   7962036.00000000        6463842.00000000        3894924.00000000     
   4970184.00000000        5573204.00000000        2828005.00000000     
   5946453.00000000        1304909.00000000        7487341.00000000     
   2619962.00000000        4237312.00000000        8645132.00000000     
   580053.000000000        138561.000000000        2921398.00000000     
   4883964.00000000        1154376.00000000        6743999.00000000     
   263632.000000000        2186906.00000000        3224480.00000000     
   988958.000000000     
   8800000.00000000        1618033.00000000       0.000000000000000E+000
  1.136363636363636E-007   5324918.00000000        1667309.00000000     
           1          11          42
   6629411.00000000        1486749.00000000        6497093.00000000     
   2703288.00000000        4084305.00000000        5192309.00000000     
   4427004.00000000        138646.000000000        6298183.00000000     
   5953745.00000000        5324918.00000000        3879280.00000000     
   6816990.00000000        1297530.00000000        7254358.00000000     
   6260595.00000000        3822558.00000000        6978994.00000000     
   3189931.00000000        8713179.00000000        6944205.00000000     
   132985.000000000        3659140.00000000        6208005.00000000     
   7246608.00000000        2200174.00000000        1066269.00000000     
   1293546.00000000        4876065.00000000        3211534.00000000     
   3561658.00000000        2682413.00000000        4951340.00000000     
   1107344.00000000        5226246.00000000        7463378.00000000     
   665148.000000000        8296694.00000000        3714615.00000000     
   3872929.00000000        2650127.00000000        8385309.00000000     
   4855436.00000000        2728262.00000000        2173218.00000000     
   3396015.00000000        6801337.00000000        7557692.00000000     
   7603168.00000000        7039946.00000000        3175561.00000000     
   7369706.00000000        295014.000000000        1555038.00000000     
   5550168.00000000     
   8800000.00000000        1618033.00000000       0.000000000000000E+000
  1.136363636363636E-007   7098986.00000000        2512077.00000000     
           1          11          42
   2775327.00000000        164245.000000000        2333813.00000000     
   8542924.00000000        4289561.00000000        2037769.00000000     
   6795108.00000000        70454.0000000000        2016711.00000000     
   3234837.00000000        7098986.00000000        8335312.00000000     
   4705518.00000000        7124722.00000000        3156734.00000000     
   782287.000000000        1253594.00000000        95326.0000000000     
   6462391.00000000        3338935.00000000        4745181.00000000     
   3427525.00000000        377364.000000000        8144889.00000000     
   301820.000000000        6291778.00000000        3225425.00000000     
   5161426.00000000        6174917.00000000        4864170.00000000     
   697878.000000000        7216497.00000000        3904952.00000000     
   5888200.00000000        7476174.00000000        469406.000000000     
   1176996.00000000        4890874.00000000        7668635.00000000     
   3327161.00000000        235603.000000000        7996285.00000000     
   7621104.00000000        6726162.00000000        4611470.00000000     
   8203299.00000000        2592169.00000000        6014600.00000000     
   8070696.00000000        4780686.00000000        7182045.00000000     
   8644574.00000000        985470.000000000        7226394.00000000     
   5141388.00000000     
