          89          54
    1    0 1 0 1 0 0 0 0 1 1 1 0 0 0 1 0 1 1 0 1 1 1 0 0 1 0 1 0 1 0 0 0 1 0 1 0 0 1 1 0 1 0 1 0 0 0 0 1 1 0 0
    0    0 0 0 0 1 0 0 0 1 1 1 0 1 1 1 1 1 0 1 1 0 0 1 1 0 1 1 0 0 1 0 0 1 0 0 0 0 1 0 1 1 1 1 0 1 1 1 0 0 0 0
    1    1 0 1 1 0 0 0 0 1 0 1 1 0 1 1 1 0 0 1 0 0 1 1 0 0 1 0
    2    0 1 0 1 0 0 0 0 1 1 1 0 0 0 1 1 1 1 1 1 0 1 0 0 1 0 1 0 1 0 0 0 1 0 1 1 0 1 1 0 1 0 1 0 0 0 0 1 1 0 0
    0    0 0 0 0 1 0 0 1 0 1 1 0 1 1 1 0 1 1 1 0 0 0 1 1 0 1 1 0 0 1 0 0 0 1 0 0 0 1 0 0 1 1 1 0 1 1 1 0 0 0 1
    0    1 0 1 1 0 0 0 0 0 1 0 1 1 1 1 1 0 0 1 1 0 1 1 0 0 1 0
    3    0 1 0 1 0 0 0 0 1 1 1 0 1 0 1 1 1 1 0 1 1 1 0 0 1 0 1 0 1 0 0 0 1 0 1 1 0 1 1 0 1 0 1 0 0 0 0 1 1 0 0
    0    0 0 0 0 1 0 1 0 0 1 1 0 0 1 0 0 1 0 1 1 0 0 1 1 0 1 1 0 0 1 0 0 1 0 0 0 0 1 0 0 0 1 1 0 1 1 1 0 0 0 0
    1    1 0 1 1 0 0 0 0 1 1 0 1 0 1 1 1 0 0 1 1 0 1 1 0 0 1 0
    4    0 1 0 1 0 0 0 0 1 1 1 0 1 0 1 0 1 1 0 1 1 1 0 0 1 0 1 0 1 0 1 0 1 0 1 1 0 1 1 0 1 0 1 0 0 0 0 1 1 0 0
    0    0 0 0 0 1 0 1 0 0 0 1 0 0 1 0 0 1 0 1 1 1 0 1 1 0 1 1 0 0 1 0 0 0 0 0 0 0 1 0 0 1 1 1 0 1 1 1 0 0 0 0
    1    1 0 1 1 0 0 0 0 1 1 0 1 0 1 1 1 0 1 1 1 0 1 1 0 0 1 0
    5    0 1 0 1 0 0 0 0 1 1 1 0 1 0 1 0 1 1 0 1 1 1 0 0 1 0 1 0 1 0 0 0 1 0 1 1 0 1 1 0 1 0 1 0 0 0 0 1 1 0 0
    0    0 0 0 0 1 0 1 1 0 0 1 0 0 1 0 0 1 0 1 1 1 0 1 1 0 1 1 0 0 1 0 0 1 0 0 0 0 1 0 1 0 1 1 0 1 1 1 0 0 0 1
    0    1 0 1 1 0 0 0 0 1 0 0 1 0 1 0 1 0 1 1 0 0 1 1 0 0 1 0
    6    0 1 0 1 0 0 0 0 1 1 1 0 0 0 1 1 1 1 1 1 0 1 0 0 1 0 1 0 1 0 0 0 1 0 1 0 0 1 1 0 1 0 1 0 0 0 0 1 1 0 0
    0    0 0 0 0 1 0 0 1 1 0 1 0 1 1 1 0 1 0 1 0 0 0 1 1 0 1 1 0 0 1 0 0 1 1 1 0 0 1 0 0 1 1 1 0 1 1 1 0 0 0 1
    0    1 0 1 1 0 0 0 0 1 0 1 1 0 1 1 1 0 0 1 0 0 1 1 0 0 1 0
    7    0 1 0 1 0 0 0 0 1 1 1 0 1 0 1 0 1 1 0 1 1 0 0 0 1 0 1 0 1 0 0 0 1 0 1 1 0 1 1 0 1 0 1 0 0 0 0 1 1 0 0
    0    0 0 0 0 1 0 1 1 0 1 1 0 0 1 0 0 1 0 1 1 1 0 1 1 0 1 1 0 0 1 0 0 1 0 0 0 0 1 0 1 0 1 1 0 1 1 1 0 0 0 1
    0    1 0 1 1 0 0 0 0 1 0 0 1 0 1 0 1 0 1 1 0 0 1 1 0 0 1 0
    8    0 1 0 1 0 0 0 0 1 1 1 0 0 0 1 1 1 1 1 1 0 1 0 0 1 0 1 0 1 0 0 0 1 0 1 1 0 1 1 0 1 0 1 0 0 0 0 1 1 0 0
    0    0 0 0 0 1 0 0 1 1 0 1 0 1 1 1 0 1 0 1 0 0 0 1 1 0 1 1 0 0 1 0 0 1 1 1 0 1 1 0 0 1 1 1 0 1 1 1 0 0 0 1
    0    1 0 1 1 0 0 0 0 1 0 0 1 0 1 1 1 0 0 1 0 0 1 1 0 0 1 0
    9    0 1 0 1 0 0 0 0 1 1 1 0 0 0 1 0 1 1 1 1 1 1 0 0 1 0 1 0 1 0 0 0 1 0 1 0 0 1 1 0 1 0 1 0 0 0 0 1 1 0 0
    0    0 0 0 0 1 0 0 1 1 1 1 0 0 1 1 0 1 0 1 0 1 0 1 1 0 1 1 0 0 1 0 0 1 1 0 0 0 1 0 1 1 1 1 0 1 1 1 0 0 0 1
    0    1 0 1 1 0 0 0 0 1 0 1 1 0 1 0 1 0 0 1 0 0 1 1 0 0 1 0
   10    0 1 0 1 0 0 0 0 1 1 1 0 1 0 1 1 1 1 0 1 0 0 0 0 1 0 1 0 1 1 0 0 1 0 0 1 0 1 1 0 1 0 1 0 0 0 0 1 1 0 0
    0    0 0 0 0 1 1 1 1 0 0 1 0 0 1 1 0 0 0 0 1 0 0 1 1 0 1 1 0 0 1 0 0 1 1 0 0 0 1 0 0 0 1 1 0 1 1 1 0 0 0 1
    0    1 0 1 1 0 0 0 0 1 0 0 1 0 1 0 1 0 1 1 0 0 1 1 0 0 1 0
   11    0 1 0 1 0 0 0 0 1 1 1 0 1 0 1 0 1 1 0 1 0 1 0 0 1 0 1 0 1 0 0 0 1 1 1 0 0 1 1 0 1 0 1 0 0 0 0 1 1 0 0
    0    0 0 0 0 1 0 1 1 0 0 1 0 0 1 1 0 1 0 1 1 1 0 1 1 0 1 1 0 0 1 0 0 1 0 1 0 0 1 0 1 1 1 1 0 1 1 1 0 0 0 1
    0    1 0 1 1 0 0 0 0 1 0 1 1 0 1 1 1 0 0 1 0 0 1 1 0 0 1 0
   12    0 1 0 1 0 0 0 0 1 1 1 0 0 0 1 1 1 1 1 1 0 0 0 0 1 0 1 0 1 0 0 0 1 0 1 1 1 1 1 0 1 0 1 0 0 0 0 1 1 0 0
    0    0 0 0 0 1 0 0 1 1 1 1 0 0 1 1 0 1 0 1 1 0 0 1 1 1 1 1 0 0 1 0 0 0 1 0 0 0 1 0 0 0 1 1 0 1 1 1 0 0 0 1
    0    1 0 1 1 0 0 0 0 1 0 0 0 0 1 1 1 0 0 1 1 0 1 1 0 0 1 0
   13    0 1 0 1 0 0 0 0 1 1 1 0 0 0 1 1 1 1 0 1 0 0 0 0 1 0 1 0 1 0 0 0 1 0 0 1 0 1 1 0 1 0 1 0 0 0 0 1 1 0 0
    0    0 0 0 0 1 0 1 1 0 0 1 0 0 1 0 0 0 0 0 1 0 0 1 1 0 1 1 0 0 1 0 0 1 1 0 0 0 1 0 0 0 1 1 0 1 1 1 0 0 0 1
    0    1 0 1 1 0 0 0 0 1 0 0 1 0 1 1 1 0 0 1 0 0 1 1 0 0 1 0
   14    0 1 0 1 0 0 0 0 1 1 1 0 1 0 1 0 1 1 0 1 1 1 0 0 1 0 1 0 1 0 0 0 1 0 1 1 0 1 1 0 1 0 1 0 0 0 0 1 1 0 0
    0    0 0 0 0 1 0 1 1 0 0 1 0 0 1 0 0 1 0 1 1 1 0 1 1 0 1 1 0 0 1 0 0 1 0 0 0 0 1 0 1 0 1 1 0 1 1 1 0 0 0 1
    0    1 0 1 1 0 0 0 0 1 0 0 1 0 1 0 1 0 1 1 0 0 1 1 0 0 1 0
   15    0 1 0 1 0 0 0 0 1 1 1 0 1 0 1 1 1 1 0 1 0 1 0 0 1 0 1 0 1 0 0 1 1 0 1 1 0 1 1 0 1 0 1 0 0 0 0 1 1 0 0
    0    0 0 0 0 1 0 0 1 0 0 1 0 0 1 0 0 1 0 1 1 0 1 1 1 0 1 1 0 0 1 0 0 1 0 0 0 1 1 1 1 0 1 1 0 1 1 1 0 0 0 1
    0    1 0 1 1 0 0 0 0 1 0 1 1 0 1 0 1 0 1 1 0 0 1 1 0 0 1 0
   16    0 1 0 1 0 0 0 0 1 1 1 0 0 0 1 1 1 1 1 1 0 1 0 0 1 0 1 0 1 0 0 0 1 0 1 0 0 1 1 0 1 0 1 0 0 0 0 1 1 0 0
    0    0 0 0 0 1 0 0 1 1 0 1 0 1 1 1 0 1 0 1 0 0 0 1 1 0 1 1 0 0 1 0 0 1 1 1 0 0 1 0 0 1 1 1 0 1 1 1 0 0 0 1
    0    1 0 1 1 0 0 0 0 1 0 1 1 0 1 1 1 0 0 1 0 0 1 1 0 0 1 0
   17    0 1 0 1 0 0 0 0 1 1 1 0 0 0 1 1 1 1 1 1 0 1 0 0 1 0 1 0 1 0 0 0 1 0 1 0 0 1 1 0 1 0 1 0 0 0 0 1 1 0 0
    0    0 0 0 0 1 0 0 1 1 0 1 0 1 1 1 0 1 0 1 0 0 0 1 1 0 1 1 0 0 1 0 0 1 1 1 0 0 1 0 0 1 1 1 0 1 1 1 0 0 0 1
    0    1 0 1 1 0 0 0 0 1 0 0 1 0 1 1 1 0 0 1 0 0 1 1 0 0 1 0
   18    0 1 0 1 0 0 0 0 1 1 1 0 1 0 1 0 1 1 0 1 0 0 0 0 1 0 1 0 0 0 0 0 1 0 0 1 0 1 1 0 1 0 1 0 0 0 0 1 1 0 0
    0    0 0 0 0 1 0 1 1 0 0 1 0 0 1 0 0 1 0 0 1 1 0 1 1 0 1 1 0 0 1 0 0 1 0 0 0 0 1 0 0 0 1 1 0 1 1 1 0 0 0 1
    0    1 0 1 1 0 0 0 0 1 0 0 1 0 1 1 1 0 0 1 0 0 1 1 0 0 1 0
   19    0 1 0 1 0 0 0 0 1 1 1 0 0 0 1 1 1 1 1 1 0 1 0 0 1 0 1 0 1 1 0 0 1 1 0 0 0 1 1 0 1 0 1 0 0 0 0 1 1 0 0
    0    0 0 0 0 1 0 0 1 0 0 1 0 1 1 1 1 0 0 0 1 0 0 1 1 0 1 1 0 0 1 0 0 1 1 0 0 0 1 0 0 1 1 1 0 1 1 1 0 0 0 1
    0    1 0 1 1 0 0 0 0 1 0 0 1 0 1 0 1 0 0 1 0 0 1 1 0 0 1 0
   20    0 1 0 1 0 0 0 0 1 1 1 0 0 0 1 0 1 1 1 1 0 1 0 0 1 0 1 0 1 0 0 0 1 0 1 0 0 1 1 0 1 0 1 0 0 0 0 1 1 0 0
    0    0 0 0 0 1 0 0 1 1 1 1 0 1 1 1 0 1 0 1 0 1 0 1 1 0 1 1 0 0 1 0 0 1 1 0 0 0 1 0 1 1 1 1 0 1 1 1 0 0 0 1
    0    1 0 1 1 0 0 0 0 1 0 1 1 0 1 1 1 0 0 1 0 0 1 1 0 0 1 0
   21    0 1 0 1 0 0 0 0 1 1 1 0 0 0 1 0 1 1 1 0 0 1 0 0 1 0 1 0 1 0 0 0 1 0 1 0 0 1 1 0 1 0 1 0 0 0 0 1 1 0 0
    0    0 0 0 0 1 0 1 1 1 0 1 0 1 1 0 0 1 0 1 0 1 0 1 1 0 1 1 0 0 1 0 0 1 0 1 0 0 1 0 1 1 1 1 0 1 1 1 0 0 0 1
    0    1 0 1 1 0 0 0 0 1 0 1 1 0 1 1 1 0 0 1 0 0 1 1 0 0 1 0
   22    0 1 0 1 0 0 0 0 1 1 1 0 1 0 1 0 1 1 1 1 0 1 0 0 1 0 1 0 1 0 0 0 1 0 1 1 0 1 1 0 1 0 1 0 0 0 0 1 1 0 0
    0    0 0 0 0 1 0 0 1 1 1 1 0 0 1 1 0 1 0 1 0 0 0 1 0 0 1 1 0 0 1 0 0 1 1 0 0 0 1 0 0 1 1 1 0 1 1 1 0 0 0 1
    0    1 0 1 1 0 0 0 0 1 0 0 1 0 1 1 1 0 0 1 0 0 1 1 0 0 1 0
   23    0 1 0 1 0 0 0 0 1 1 1 0 1 0 1 0 1 1 0 1 0 1 0 0 1 0 1 0 0 0 0 0 1 0 0 1 0 1 1 0 1 0 1 0 0 0 0 1 1 0 0
    0    0 0 0 0 1 0 1 1 0 0 1 0 1 1 1 0 1 0 0 1 1 0 1 1 1 1 1 0 0 1 0 0 1 0 0 0 0 1 0 0 0 1 1 0 1 1 1 0 0 0 1
    0    1 0 1 1 0 0 0 0 1 0 0 1 0 1 1 1 0 0 1 0 0 1 1 0 0 1 0
   24    0 1 0 1 0 0 0 0 1 1 1 0 1 0 1 1 1 1 0 1 0 1 0 0 1 0 1 0 1 1 0 1 1 0 1 1 0 1 1 0 1 0 1 0 0 0 0 1 1 0 0
    0    0 0 0 0 1 0 0 1 0 0 1 0 0 1 0 0 1 0 1 1 0 1 1 1 0 1 1 0 0 1 0 0 1 0 0 0 1 1 1 1 0 1 1 0 1 1 1 0 0 0 1
    0    1 0 1 1 0 0 0 0 1 0 1 1 0 1 0 1 0 1 1 0 0 1 1 0 0 1 0
   25    0 1 0 1 0 0 0 0 1 1 1 0 1 0 1 0 1 1 0 1 1 1 0 0 1 0 1 0 1 0 0 0 1 0 1 1 0 1 1 0 1 0 1 0 0 0 0 1 1 0 0
    0    0 0 0 0 1 0 1 1 0 0 1 0 0 1 0 0 1 0 1 1 1 0 1 1 0 1 1 0 0 1 0 0 1 0 0 0 0 1 0 1 0 1 1 0 1 1 1 0 0 0 1
    0    1 0 1 1 0 0 0 0 1 0 0 1 0 1 0 1 0 1 1 0 0 1 1 0 0 1 0
   26    0 1 0 1 0 0 0 0 1 1 1 0 0 0 1 1 1 1 1 1 1 1 0 0 1 0 1 0 1 0 0 0 1 0 1 0 0 1 1 0 1 0 1 0 0 0 0 1 1 0 0
    0    0 0 0 0 1 0 0 1 1 0 1 0 0 1 1 1 0 1 1 0 1 0 1 1 0 1 1 0 0 1 0 0 1 1 0 0 0 1 0 0 1 1 1 0 1 1 1 0 0 0 1
    0    1 0 1 1 0 0 0 0 1 0 0 1 0 1 0 1 0 0 1 0 0 1 1 0 0 1 0
   27    0 1 0 1 0 0 0 0 1 1 1 0 0 0 1 1 1 1 1 1 0 1 0 0 1 0 1 0 1 0 0 0 1 0 1 1 0 1 1 0 1 0 1 0 0 0 0 1 1 0 0
    0    0 0 0 0 1 0 0 1 0 0 1 0 0 1 0 0 1 0 1 0 0 0 1 1 0 1 1 0 0 1 0 0 1 1 0 0 1 1 0 0 1 1 1 0 1 1 1 0 0 0 1
    0    1 0 1 1 0 0 0 0 1 0 0 1 0 1 0 1 0 1 1 0 0 1 1 0 0 1 0
   28    0 1 0 1 0 0 0 0 1 1 1 0 1 0 1 1 1 1 0 1 0 0 0 0 1 0 1 0 1 1 0 0 1 0 0 1 0 1 1 0 1 0 1 0 0 0 0 1 1 0 0
    0    0 0 0 0 1 1 0 1 0 0 1 0 0 1 0 0 1 0 0 1 0 0 1 1 0 1 1 0 0 1 0 0 1 0 0 0 0 1 1 1 0 1 1 0 1 1 1 0 0 0 1
    0    1 0 1 1 0 0 0 0 1 0 0 1 0 1 0 1 0 1 1 0 0 1 1 0 0 1 0
   29    0 1 0 1 0 1 0 0 1 1 1 0 1 0 1 1 1 1 0 1 0 1 0 0 1 0 1 0 1 0 0 1 1 0 1 1 0 1 1 0 1 0 1 0 0 0 0 1 1 0 0
    0    0 0 0 0 1 0 1 1 0 0 1 0 0 1 0 0 0 0 1 1 0 1 1 1 0 1 1 0 0 1 0 0 1 1 1 0 1 1 0 0 0 1 1 0 1 1 1 0 0 0 1
    0    1 0 1 1 0 0 0 0 1 0 1 1 0 1 0 1 0 1 1 0 0 1 1 0 0 1 0
   30    0 1 0 1 0 0 0 0 1 1 1 0 1 0 1 1 1 1 0 1 1 0 0 0 1 0 1 0 1 0 0 0 1 0 0 1 0 1 1 0 1 0 1 0 0 0 0 1 1 0 0
    0    0 0 0 0 1 0 1 1 0 0 1 0 0 1 0 0 0 0 1 1 0 0 1 1 0 1 1 0 0 1 0 0 1 1 0 1 0 1 0 1 0 1 1 0 1 1 1 0 0 0 1
    0    1 0 1 1 0 0 0 0 1 0 0 0 0 1 1 1 0 0 1 0 0 1 1 0 0 1 0
   31    0 1 0 1 0 0 0 0 1 1 1 0 0 0 1 1 1 1 1 1 0 1 0 0 1 0 1 0 1 0 0 0 1 1 1 0 0 1 1 0 1 0 1 0 0 0 0 1 1 0 0
    0    0 0 0 0 1 0 1 1 1 0 1 0 0 1 1 0 1 0 1 0 0 0 1 1 0 1 1 0 0 1 0 0 1 1 1 0 0 1 0 0 1 1 1 0 1 1 1 0 0 0 1
    0    1 0 1 1 0 0 0 0 1 0 1 1 0 1 1 1 0 0 1 0 0 1 1 0 0 1 0
   32    0 1 0 1 0 0 0 0 1 1 1 0 1 0 1 0 1 1 0 1 1 0 0 0 1 0 1 0 1 1 0 0 1 0 0 1 0 1 1 0 1 0 1 0 0 0 0 1 1 0 0
    0    0 0 0 0 1 0 0 1 0 0 1 0 0 1 0 0 1 0 0 1 1 0 1 1 0 1 1 0 0 1 0 0 1 0 0 0 0 1 1 1 0 1 1 0 1 1 1 0 0 0 1
    0    1 0 1 1 0 0 0 0 1 0 0 1 0 1 0 1 0 1 0 0 0 1 1 0 0 1 0
   33    0 1 0 1 0 0 0 0 1 1 1 0 1 0 0 0 1 1 1 1 0 1 0 0 1 0 1 0 1 0 0 0 1 0 0 0 0 1 1 0 1 0 1 0 0 0 0 1 1 0 0
    0    0 0 0 0 1 0 0 1 1 1 1 0 0 1 0 0 1 0 1 0 0 0 1 1 0 1 1 0 0 1 0 0 1 0 0 0 0 1 1 1 1 1 1 0 1 1 1 0 0 0 1
    0    1 0 1 1 0 0 0 0 1 0 0 1 0 1 0 1 0 0 0 0 0 1 1 0 0 1 0
   34    0 1 0 1 0 0 0 0 1 1 1 0 0 0 1 1 1 1 0 1 1 0 0 0 1 0 1 0 1 1 0 0 1 0 1 1 0 1 1 0 1 0 1 0 0 0 0 1 1 0 0
    0    0 0 0 0 1 1 0 1 0 0 1 0 0 1 1 0 1 0 0 1 1 0 1 1 0 1 1 0 0 1 0 0 1 1 0 0 0 1 0 1 0 1 1 0 1 1 1 0 0 0 1
    0    1 0 1 1 0 0 0 0 1 0 1 1 0 1 0 1 0 1 1 0 0 1 1 0 0 1 0
   35    0 1 0 1 0 0 0 0 1 1 1 0 1 0 1 0 1 1 0 1 1 1 0 0 1 0 1 0 1 0 0 0 1 0 1 1 0 1 1 0 1 0 1 0 0 0 0 1 1 0 0
    0    0 0 0 0 1 0 0 1 0 1 1 0 0 1 1 1 1 0 1 1 1 0 1 1 1 1 1 0 0 1 0 0 0 0 0 0 0 1 0 0 0 1 1 0 1 1 1 0 0 0 1
    0    1 0 1 1 0 0 0 0 1 0 0 1 0 1 0 1 0 1 1 0 0 1 1 0 0 1 0
   36    0 1 0 1 0 0 0 0 1 1 1 1 1 0 1 0 1 0 0 1 1 0 0 0 1 0 1 0 1 1 0 0 1 0 1 1 0 1 1 0 1 0 1 0 0 0 0 1 1 0 0
    0    0 0 0 0 1 0 1 1 0 0 1 0 1 1 0 0 1 0 1 1 1 0 1 1 0 1 1 0 0 1 0 0 1 0 0 0 0 1 0 1 0 1 1 0 1 1 1 0 0 0 1
    0    1 0 1 1 0 0 0 0 1 0 0 1 0 1 1 1 0 1 1 0 0 1 1 0 0 1 0
   37    0 1 0 1 0 0 0 0 1 1 1 0 1 0 1 0 1 0 0 1 1 1 0 0 1 0 1 0 1 0 0 0 1 0 1 1 0 1 1 0 1 0 1 0 0 0 0 1 1 0 0
    0    0 0 0 0 1 0 0 1 0 1 1 0 1 1 1 0 1 0 1 1 1 0 1 1 1 1 1 0 0 1 0 0 0 0 0 0 0 1 0 0 0 1 1 0 1 1 1 0 0 0 1
    0    1 0 1 1 0 0 0 0 1 0 0 1 0 1 1 1 0 1 1 0 0 1 1 0 0 1 0
   38    0 1 0 1 0 0 0 0 1 1 1 0 1 0 1 0 1 1 0 1 1 1 0 0 1 0 1 0 1 0 0 0 1 0 1 1 0 1 1 0 1 0 1 0 0 0 0 1 1 0 0
    0    0 0 0 0 1 0 1 1 0 0 0 0 0 1 0 0 1 0 1 1 1 0 1 1 0 1 1 0 0 1 0 0 1 0 0 0 0 1 0 1 0 1 1 0 1 1 1 0 0 0 1
    0    1 0 1 1 0 0 0 0 1 0 0 1 0 1 0 1 0 1 1 0 0 1 1 0 0 1 0
   39    0 1 0 1 0 0 0 0 1 1 1 0 1 0 1 0 1 1 1 0 0 1 0 0 1 0 1 0 1 0 0 0 1 0 1 1 0 1 1 0 1 0 1 0 0 0 0 1 1 0 0
    0    0 0 0 0 1 0 1 1 1 0 1 0 0 1 1 0 1 0 1 0 0 0 1 0 0 1 1 0 0 1 0 0 1 0 1 0 0 1 0 0 1 1 1 0 1 1 1 0 0 0 1
    0    1 0 1 1 0 0 0 0 1 0 0 1 0 1 1 1 0 0 1 0 0 1 1 0 0 1 0
   40    0 1 0 1 0 0 0 0 1 1 1 0 1 0 1 0 1 1 0 1 0 1 0 0 1 0 1 0 1 0 1 0 1 0 1 1 0 1 1 0 1 0 1 0 0 0 0 1 1 0 0
    0    0 0 0 0 1 0 0 1 0 0 1 0 0 1 1 0 1 0 0 1 0 1 1 1 1 1 1 0 0 1 0 0 1 0 0 0 1 1 1 1 0 1 1 0 1 1 1 0 0 0 1
    0    1 0 1 1 0 0 0 0 1 0 0 1 0 1 1 1 0 0 1 0 0 1 1 0 0 1 0
   41    0 1 0 1 0 0 0 0 1 1 1 0 0 0 1 1 1 1 1 1 1 1 0 0 1 0 1 0 1 0 0 0 1 0 1 1 0 1 1 0 1 0 1 0 0 0 0 1 1 0 0
    0    0 0 0 0 1 0 1 1 0 0 1 0 1 1 1 0 1 0 1 0 0 0 1 1 0 1 1 0 0 1 0 0 1 1 0 0 0 1 0 0 0 1 1 0 1 1 1 0 0 0 1
    0    1 0 1 1 0 0 0 0 1 0 0 1 0 1 1 1 0 0 1 0 0 1 1 0 0 1 0
   42    0 1 0 1 0 0 0 0 1 1 1 0 1 0 1 0 1 1 0 1 0 1 0 0 1 0 1 0 1 0 0 0 1 0 1 1 0 1 1 0 1 0 1 0 0 0 0 1 1 0 0
    0    0 0 0 0 1 0 0 1 1 0 1 0 0 1 0 0 0 0 1 1 1 0 1 1 0 1 1 0 0 1 0 0 1 0 1 0 1 1 0 1 1 1 1 0 1 1 1 0 0 0 1
    0    1 0 1 1 0 0 0 0 1 0 0 1 0 1 0 1 0 1 1 0 0 1 1 0 0 1 0
   43    0 1 0 1 0 1 0 0 1 1 1 0 1 0 1 1 1 1 0 1 0 0 0 0 1 0 1 0 1 0 0 0 1 0 1 1 0 1 1 0 1 0 1 0 0 0 0 1 1 0 0
    0    0 0 0 0 1 0 1 1 0 0 1 0 0 1 0 0 0 0 1 1 0 0 1 1 0 1 1 0 0 1 0 0 1 1 0 0 0 1 0 1 0 1 1 0 1 1 1 0 0 0 1
    0    1 0 1 1 0 0 0 0 1 0 1 1 0 1 0 1 0 1 1 0 0 1 1 0 0 1 0
   44    0 1 0 1 0 0 0 0 1 1 1 0 1 0 1 1 1 1 0 1 0 1 0 0 1 0 1 0 1 1 0 0 1 0 1 1 0 1 1 0 1 0 1 0 0 0 0 1 1 0 0
    0    0 0 0 0 1 0 1 1 0 0 1 0 0 1 0 0 1 0 1 1 0 0 1 1 1 1 1 0 0 1 0 0 1 1 0 0 0 1 0 0 0 1 1 0 1 1 1 0 0 0 1
    0    1 0 1 1 0 0 0 0 1 0 0 0 0 1 1 1 0 0 1 0 0 1 1 0 0 1 0
   45    0 1 0 1 0 0 0 0 1 1 1 0 0 1 1 1 1 1 0 0 0 1 0 0 1 0 1 0 1 1 0 1 1 0 1 1 1 1 1 0 1 0 1 0 0 0 0 1 1 0 0
    0    0 0 0 1 1 0 0 1 1 1 1 0 1 1 1 0 1 0 0 0 0 1 1 1 0 1 1 0 0 1 0 0 1 0 1 0 1 1 0 0 0 1 1 0 1 1 0 1 1 0 1
    0    1 0 1 1 0 0 1 0 0 0 1 1 1 1 0 1 1 0 0 0 0 1 1 0 0 1 0
   46    0 1 0 1 0 0 0 0 1 1 1 0 0 1 1 1 1 1 1 0 0 1 0 0 1 0 1 0 1 1 0 1 1 0 1 1 1 1 1 0 1 0 1 0 0 0 0 1 1 0 0
    0    0 0 0 1 1 0 0 1 1 1 1 0 1 1 1 0 1 0 0 0 0 0 1 0 0 1 1 0 0 1 0 0 1 0 1 0 1 1 0 0 0 1 1 0 1 1 0 1 1 0 1
    0    1 0 1 1 0 0 1 0 0 0 1 1 1 1 0 1 1 0 0 0 0 1 1 0 0 1 0
   47    0 1 0 1 0 0 0 0 1 1 1 0 0 1 1 1 1 1 0 0 0 1 0 0 1 0 1 0 1 1 0 1 1 0 1 1 1 1 1 0 1 0 1 0 0 0 0 1 1 0 0
    0    0 0 0 1 1 0 0 1 1 1 1 0 1 1 1 0 1 0 0 0 0 1 1 1 0 1 1 0 0 1 0 0 1 0 1 0 1 1 1 0 0 1 1 0 1 1 0 1 1 0 1
    0    1 0 1 1 0 0 1 0 0 0 1 1 1 1 0 1 1 0 0 0 0 1 1 0 0 1 0
   48    0 1 0 1 0 0 0 0 1 1 1 0 0 1 1 1 1 1 0 0 0 1 0 0 1 0 1 0 1 1 0 1 1 0 1 1 1 1 1 0 1 0 1 0 0 0 0 1 1 0 0
    0    0 0 0 1 1 0 0 1 1 1 1 0 1 1 1 0 1 0 0 0 0 1 1 1 0 1 1 0 0 1 0 0 1 0 1 0 1 1 0 0 0 1 1 0 1 1 0 1 1 0 1
    0    1 0 1 1 0 0 1 0 0 0 1 1 1 1 0 1 1 0 0 0 0 1 1 0 0 1 0
   49    0 1 0 1 0 0 0 0 1 1 1 0 0 1 1 1 1 1 0 0 0 1 0 0 1 0 1 0 1 1 0 1 1 0 1 1 1 1 1 0 1 0 1 0 0 0 0 1 1 0 0
    0    0 0 0 1 1 0 1 1 1 1 1 0 1 1 1 0 1 0 0 0 0 1 1 1 0 1 1 0 0 1 0 0 1 0 1 0 0 1 0 0 0 1 1 0 1 1 0 1 1 0 1
    0    1 0 1 1 0 0 1 0 0 0 1 1 1 1 0 1 0 0 0 0 0 1 1 0 0 1 0
   50    0 1 0 1 0 0 0 0 1 1 1 0 1 0 1 0 1 1 0 1 0 0 0 0 1 0 1 0 0 1 0 0 1 0 1 1 0 1 1 0 1 0 1 0 0 0 0 1 1 0 0
    0    0 0 0 1 1 0 0 1 0 1 1 0 1 1 0 1 1 0 1 0 0 0 1 1 0 1 1 0 0 1 0 0 0 1 0 0 0 1 0 1 0 1 1 0 1 1 1 0 0 0 0
    0    1 0 1 1 0 0 0 0 1 0 0 1 0 1 1 1 0 1 1 1 0 1 1 0 0 1 0
   51    0 1 0 1 0 0 0 0 1 1 1 0 1 0 1 0 1 1 1 1 0 1 0 0 1 0 1 0 1 0 0 0 1 0 1 0 0 1 1 0 1 0 1 0 0 0 0 1 1 0 0
    0    0 0 0 1 1 0 0 1 1 1 1 0 1 1 1 0 1 0 1 1 1 0 1 1 0 1 1 0 0 1 0 0 0 1 0 0 0 1 0 0 1 1 1 0 1 1 1 0 0 0 1
    0    1 0 1 1 0 0 0 0 0 0 1 1 0 0 1 1 1 0 1 1 0 1 1 0 0 1 0
   52    0 1 0 1 0 0 0 0 1 1 1 0 1 0 1 1 1 1 1 0 0 1 0 0 1 0 1 0 1 0 0 0 0 0 1 1 1 1 1 0 1 0 1 0 0 0 0 1 1 0 0
    0    0 0 0 1 1 0 0 1 1 0 1 0 1 1 1 0 1 0 1 0 0 0 1 1 0 1 1 0 0 1 0 0 1 1 1 0 1 1 0 0 0 1 1 0 1 1 1 0 0 0 1
    0    1 0 1 1 0 0 0 0 0 0 0 1 0 1 1 1 0 0 1 1 0 1 1 0 0 1 0
   53    0 1 0 1 0 0 0 0 1 1 1 0 1 0 1 0 1 1 1 0 0 1 0 0 1 0 1 0 1 0 0 0 0 0 1 0 1 1 1 0 1 0 1 0 0 0 0 1 1 0 0
    0    0 0 0 1 1 0 1 1 1 1 1 0 1 1 1 0 1 0 1 0 0 0 1 1 0 1 1 0 0 1 0 0 1 1 1 0 0 1 0 0 0 1 1 0 1 1 1 0 0 0 1
    0    1 0 1 1 0 0 0 0 0 0 0 1 1 0 0 1 1 0 0 0 0 1 1 0 0 1 0
   54    0 1 0 1 0 0 0 0 1 1 1 0 0 0 1 0 1 1 0 0 0 1 0 0 1 0 1 0 1 1 0 1 1 0 1 1 1 1 1 0 1 0 1 0 0 0 0 1 1 0 0
    0    0 0 0 1 1 0 1 1 1 1 1 0 0 1 0 0 1 0 0 0 1 0 1 1 0 1 1 0 0 1 0 0 1 0 1 0 1 1 0 0 0 0 1 0 1 1 1 0 0 0 1
    0    1 0 1 1 0 0 0 0 0 0 1 1 0 1 0 1 0 0 1 0 0 1 1 0 0 1 0
   8800000.00000000        1618033.00000000       0.000000000000000E+000
  1.136363636363636E-007   7838757.00000000        2540149.00000000     
           1          54          30
   6169769.00000000        2561251.00000000        133518.000000000     
   1506559.00000000        8137148.00000000        640626.000000000     
   5068236.00000000        1685701.00000000        7434345.00000000     
   4828319.00000000        1521311.00000000        8436940.00000000     
   6723296.00000000        7437068.00000000        4801169.00000000     
   3642212.00000000        8597398.00000000        4769629.00000000     
   7588388.00000000        5672362.00000000        6214992.00000000     
   5026895.00000000        5020660.00000000        3342508.00000000     
   7500030.00000000        619981.000000000        565564.000000000     
   6656367.00000000        1540412.00000000        4374531.00000000     
   4519567.00000000        6526708.00000000        6572016.00000000     
   1619192.00000000        2426.00000000000        6670717.00000000     
   6938983.00000000        3293212.00000000        4391664.00000000     
   3512622.00000000        8626833.00000000        2157829.00000000     
   7233551.00000000        5851607.00000000        8700191.00000000     
   3708940.00000000        7441744.00000000        2201143.00000000     
   3251770.00000000        6060728.00000000        2850394.00000000     
   8140178.00000000        6013206.00000000        7838757.00000000     
   2477919.00000000     
   8800000.00000000        1618033.00000000       0.000000000000000E+000
  1.136363636363636E-007   2344231.00000000        2129117.00000000     
           1          28           4
   8556840.00000000        592684.000000000        8720076.00000000     
   145073.000000000        8301921.00000000        3879136.00000000     
   1813365.00000000        2909176.00000000        5833232.00000000     
   1593812.00000000        659546.000000000        81612.0000000000     
   1767263.00000000        4137382.00000000        2778266.00000000     
   5261311.00000000        4564180.00000000        2797198.00000000     
   8213443.00000000        5949361.00000000        5559063.00000000     
   8525512.00000000        8542987.00000000        7678468.00000000     
   4792214.00000000        6572876.00000000        940951.000000000     
   2344231.00000000        5530334.00000000        1594235.00000000     
   5052795.00000000        589342.000000000        2852971.00000000     
   4334288.00000000        1696637.00000000        8353968.00000000     
   1901271.00000000        7605942.00000000        830607.000000000     
   1274644.00000000        1994222.00000000        4480560.00000000     
   6758448.00000000        8576579.00000000        6540771.00000000     
   1525131.00000000        2518779.00000000        5282477.00000000     
   2593686.00000000        1171004.00000000        4701764.00000000     
   2810550.00000000        6895981.00000000        2053050.00000000     
   7624420.00000000     
